Variables="X","Y"
Zone T="Grid"
 N=  2310,E= 4226,F=FEPOINT ET=QUADRILATERAL
1	0
0.997214	0.0004
0.99438	0.000795
0.991501	0.001204
0.988572	0.001609
0.985597	0.002025
0.982573	0.002445
0.9795	0.002875
0.976377	0.00331
0.973203	0.003746
0.969978	0.004186
0.966701	0.004631
0.963373	0.005082
0.959993	0.005539
0.95656	0.006001
0.953073	0.006469
0.949532	0.006942
0.945936	0.007419
0.942285	0.007901
0.938579	0.008388
0.934817	0.008881
0.930998	0.009381
0.927122	0.009889
0.923188	0.0104
0.919196	0.010913
0.915144	0.01143
0.911034	0.011952
0.906865	0.012482
0.902636	0.013018
0.898345	0.013558
0.893994	0.014101
0.889581	0.014651
0.885107	0.015209
0.880571	0.015771
0.875971	0.016335
0.871307	0.0169
0.866581	0.017471
0.861791	0.018048
0.856937	0.018631
0.852017	0.019217
0.847034	0.019806
0.841985	0.020403
0.83687	0.021004
0.831689	0.021606
0.826442	0.022208
0.821128	0.022818
0.815749	0.023437
0.810302	0.024057
0.804787	0.024676
0.799205	0.025298
0.793556	0.025927
0.787839	0.026559
0.782053	0.027191
0.7762	0.027828
0.770279	0.028471
0.764289	0.029114
0.75823	0.029758
0.752104	0.030409
0.745908	0.031061
0.739643	0.031708
0.733309	0.032359
0.726908	0.03302
0.720437	0.033678
0.713898	0.034332
0.70729	0.034989
0.700613	0.03565
0.693869	0.03631
0.687055	0.036967
0.680168	0.037624
0.673202	0.038287
0.666156	0.03895
0.659031	0.039611
0.651826	0.040273
0.644542	0.040932
0.637178	0.041589
0.629735	0.04225
0.622213	0.042911
0.61461	0.043561
0.606928	0.044208
0.599168	0.044857
0.591329	0.045506
0.583411	0.046145
0.575414	0.046776
0.567339	0.047409
0.559187	0.048042
0.550956	0.048656
0.542649	0.049265
0.534266	0.049874
0.525806	0.050469
0.51727	0.051051
0.50866	0.051625
0.499976	0.052189
0.491219	0.052739
0.482389	0.053282
0.473488	0.053811
0.464515	0.054326
0.455472	0.054821
0.44636	0.055294
0.437182	0.055759
0.427936	0.056199
0.418625	0.05662
0.409249	0.05702
0.399812	0.057392
0.390313	0.057739
0.380755	0.058067
0.37114	0.058358
0.361468	0.05862
0.351742	0.058855
0.341964	0.059054
0.332211	0.059218
0.322541	0.059347
0.31295	0.05943
0.304732	0.05947
0.296572	0.059488
0.288463	0.059472
0.280402	0.059423
0.272385	0.059341
0.264407	0.059227
0.256466	0.05908
0.248564	0.058902
0.240701	0.05869
0.232881	0.058443
0.22511	0.058159
0.217394	0.057838
0.209739	0.05748
0.202153	0.057086
0.194643	0.056654
0.187219	0.056186
0.179889	0.055679
0.172659	0.055134
0.165543	0.054552
0.158536	0.053933
0.151643	0.053278
0.144866	0.052587
0.13821	0.051858
0.131679	0.051091
0.125301	0.05029
0.119093	0.04946
0.113015	0.048597
0.107094	0.047706
0.101376	0.046792
0.095773	0.045842
0.090315	0.04486
0.085027	0.043852
0.079886	0.042816
0.074909	0.041755
0.070096	0.040671
0.065448	0.039563
0.060954	0.03843
0.056625	0.037275
0.052465	0.0361
0.048472	0.034905
0.044631	0.033688
0.040955	0.032455
0.037438	0.031204
0.03408	0.029932
0.030882	0.02864
0.027847	0.027332
0.024974	0.02601
0.022262	0.024676
0.019715	0.023331
0.017337	0.02198
0.015114	0.020617
0.013067	0.019255
0.01119	0.017891
0.009482	0.016533
0.007935	0.015184
0.006587	0.013885
0.00539	0.012605
0.004348	0.011357
0.003445	0.010138
0.002682	0.008969
0.002062	0.007887
0.001547	0.006852
0.00113	0.005876
0.000797	0.004948
0.00054	0.004082
0.00035	0.003291
0.000211	0.002558
0.000114	0.001873
4.9e-05	0.001235
1.3e-05	0.000643
0	0.000101
6e-06	-0.00042
3e-05	-0.000969
7.9e-05	-0.001561
0.000157	-0.002204
0.000272	-0.002903
0.000434	-0.003665
0.000653	-0.004486
0.000941	-0.005371
0.001299	-0.00629
0.001745	-0.007267
0.002293	-0.008308
0.002955	-0.009406
0.003726	-0.010534
0.004604	-0.011677
0.005621	-0.012863
0.006779	-0.014078
0.008092	-0.015327
0.009552	-0.016592
0.011137	-0.017851
0.012876	-0.019121
0.01478	-0.020402
0.016847	-0.021688
0.019078	-0.022979
0.021477	-0.024271
0.024046	-0.025563
0.026785	-0.026853
0.029697	-0.02814
0.03278	-0.029417
0.036039	-0.030684
0.039473	-0.031937
0.043084	-0.033178
0.04686	-0.034403
0.0508	-0.03561
0.054906	-0.036797
0.059178	-0.037964
0.063614	-0.039108
0.068214	-0.04023
0.072977	-0.041327
0.077901	-0.0424
0.082987	-0.043448
0.088232	-0.04447
0.093636	-0.045464
0.099198	-0.046429
0.104916	-0.047364
0.11079	-0.048269
0.116817	-0.049143
0.122996	-0.049987
0.129327	-0.050801
0.135807	-0.051582
0.142435	-0.052327
0.149209	-0.053036
0.156129	-0.05371
0.163191	-0.05435
0.170395	-0.054954
0.177739	-0.055522
0.185221	-0.056052
0.192839	-0.056544
0.200593	-0.056999
0.208479	-0.057418
0.216497	-0.057798
0.224645	-0.05814
0.232922	-0.058444
0.241325	-0.058708
0.249854	-0.058933
0.258507	-0.059121
0.267282	-0.059272
0.276178	-0.059384
0.285195	-0.059457
0.29433	-0.059487
0.303582	-0.059475
0.31295	-0.05943
0.322541	-0.059347
0.332211	-0.059218
0.341964	-0.059054
0.351742	-0.058855
0.361468	-0.05862
0.37114	-0.058358
0.380756	-0.058067
0.390313	-0.057739
0.399812	-0.057392
0.40925	-0.05702
0.418625	-0.05662
0.427936	-0.056199
0.437182	-0.055759
0.446361	-0.055294
0.455472	-0.054821
0.464515	-0.054326
0.473488	-0.053811
0.48239	-0.053282
0.491219	-0.052739
0.499976	-0.052189
0.50866	-0.051625
0.51727	-0.051051
0.525806	-0.050469
0.534266	-0.049874
0.542649	-0.049265
0.550956	-0.048656
0.559187	-0.048042
0.567339	-0.047409
0.575414	-0.046776
0.583411	-0.046145
0.591329	-0.045506
0.599168	-0.044857
0.606928	-0.044208
0.61461	-0.043561
0.622213	-0.042911
0.629735	-0.04225
0.637178	-0.041589
0.644542	-0.040932
0.651826	-0.040273
0.659031	-0.039611
0.666156	-0.03895
0.673202	-0.038287
0.680168	-0.037624
0.687055	-0.036967
0.693869	-0.03631
0.700614	-0.03565
0.70729	-0.034989
0.713898	-0.034332
0.720437	-0.033678
0.726908	-0.03302
0.733309	-0.032359
0.739643	-0.031708
0.745908	-0.031061
0.752104	-0.030409
0.758231	-0.029758
0.764289	-0.029114
0.770279	-0.028471
0.7762	-0.027828
0.782053	-0.027191
0.787839	-0.026559
0.793556	-0.025927
0.799205	-0.025298
0.804787	-0.024676
0.810302	-0.024057
0.815749	-0.023437
0.821128	-0.022818
0.826442	-0.022208
0.831689	-0.021606
0.83687	-0.021004
0.841985	-0.020403
0.847034	-0.019806
0.852018	-0.019217
0.856937	-0.018631
0.861791	-0.018048
0.866581	-0.017471
0.871307	-0.0169
0.875971	-0.016335
0.880571	-0.015771
0.885107	-0.015209
0.889582	-0.014651
0.893994	-0.014101
0.898345	-0.013558
0.902636	-0.013018
0.906865	-0.012482
0.911034	-0.011952
0.915144	-0.01143
0.919196	-0.010913
0.923188	-0.0104
0.927122	-0.009889
0.930998	-0.009381
0.934817	-0.008881
0.938579	-0.008387
0.942285	-0.007901
0.945936	-0.007419
0.949532	-0.006942
0.953073	-0.006469
0.95656	-0.006001
0.959993	-0.005539
0.963373	-0.005082
0.966701	-0.004631
0.969978	-0.004187
0.973203	-0.003747
0.976377	-0.00331
0.9795	-0.002874
0.982573	-0.002444
0.985597	-0.002027
0.988572	-0.001607
0.991501	-0.001204
0.99438	-0.000795
0.997214	-0.0004
2.43675736905003	-0.415639145371783
2.30755308286762	-0.813289049887866
2.09849615633231	-1.17538626832121
1.81872338030013	-1.48610541469105
1.48046216758242	-1.73186657130514
1.09849615633231	-1.90192879632657
0.689519094117724	-1.98885955447281
0.27140524104711	-1.98885955447281
-0.137571821167477	-1.90192879632657
-0.519537832417583	-1.73186657130514
-0.857799045135299	-1.48610541469105
-1.13757182116748	-1.17538626832121
-1.34662874770278	-0.813289049887863
-1.47583303388519	-0.415639145371782
-1.51953783241758	0.000184236263736509
-1.47583303388519	0.416007617899256
-1.34662874770278	0.813657522415337
-1.13757182116748	1.17575474084868
-0.857799045135298	1.48647388721853
-0.519537832417582	1.73223504383261
-0.137571821167477	1.90229726885404
0.271405241047111	1.98922802700028
0.689519094117725	1.98922802700028
1.09849615633231	1.90229726885404
1.48046216758242	1.73223504383261
1.81872338030013	1.48647388721852
2.09849615633231	1.17575474084868
2.30755308286762	0.813657522415337
2.43675736905003	0.416007617899255
2.48046216758242	0.000184236263736264
0.466035445054945	1.34473835133352
1.09491960845169	0.94373741285068
-0.118108533360118	0.954138746184017
-0.487351760354299	0.592255089533118
1.46749089710644	0.585798311755339
-0.66887253092396	0.196512108598951
-0.59945078403048	-0.331400386574086
-0.193631201732652	-0.762346394300219
0.518896984866553	-0.901516063542263
1.20579771373295	-0.692300777287824
1.54751836092766	-0.369313307553202
1.83182380853884	0.0722230801552909
0.675156684502212	0.780933921394733
0.941063618310606	-1.16524854571889
0.0625646539888078	-1.18859708472302
0.564382455472379	-1.44756839497157
0.263309717047365	0.597838555859583
0.886483736612982	1.39692434434608
-0.643551268976871	-0.756377683065172
-0.479595220041121	-1.14369339415975
0.0701183635091169	1.40039145545719
0.186062594377967	-0.574102152614161
1.03306919386955	0.457577744383357
0.817200899533169	-0.542278946943362
1.8689559295043	0.490559638108656
1.32186157078123	-1.11455157923259
1.65595869601373	-0.886417051702333
-0.487753112949905	1.01095590764522
-0.929287049124007	-0.0449013472371327
1.46037796195275	1.00533653727485
1.43310490188176	0.21934046397021
1.27577462204939	1.37816530848451
-0.0622013477689781	0.4070992151309
-0.312390860619457	1.38119413564501
1.93869984617218	-0.237576457589898
1.96740387501784	-0.645760853060032
1.80927668259645	0.890550305410727
-0.259433995254377	-0.371382926958102
-0.834284346327013	0.534141573515802
-0.958455526952422	-0.396530261233027
-0.819869760148133	0.906950740669901
-1.0798014764454	0.301749281392642
0.203745542914064	0.96557188445904
0.299450783502766	-1.54167501138913
0.867980743371765	-1.50491524567234
1.22343482724514	-1.45044446540336
-0.312189466156632	-1.3547190167293
0.492250497970379	-0.390064033185841
1.25110535822021	-0.353871361613676
-0.0501035012737811	-1.59944094148167
-0.309425508726112	-0.0586132727863834
0.499217800516526	0.475604825751439
-0.982878514544024	-0.655398998062021
0.47565326007326	1.77439813511136
2.2496811150571	0.162804978106094
0.38194803144258	-1.17922718107895
-0.753572770061824	-1.02515244851538
0.675891955390047	1.17419887235811
0.255841411077776	-0.888071766959814
-1.30821930514226	-0.153452085448393
1.59884788236503	-1.16235801520866
0.755198664795358	0.321847190044932
-0.346833129139683	0.181666016981156
0.759053834236776	-0.869681185401504
0.891499662354339	1.76281654673347
0.0679839277962503	1.76397225043717
1.51829198810076	1.28999191099263
-0.222553880494465	0.651164350282678
-0.552647672901553	1.29287464350292
-0.203553922594988	-1.03154562439433
1.60414902378275	-0.0259165878092338
2.20442212714065	0.573408259474416
0.00320519970786313	-0.329644359857421
2.28530646093488	-0.217677122232648
1.46975825689145	-0.64934371218112
0.999768085917791	-0.301843769519013
1.22807008670065	-0.0448436325478219
1.19849323314256	0.662371156329792
1.90728624245463	-0.902521391027859
-1.00026095139264	0.751583278867013
0.420125039555866	-1.83979804011158
0.518264727602108	0.973568226070628
0.8853319979406	-1.79856786549057
0.609390813913729	1.50535361026365
1.43424829239753	-1.44822301730572
-0.563175447903171	-1.52423033424183
1.71543068366578	1.22233870120729
0.623279830989615	-1.69531143352458
-0.958007701924443	-0.951979238299536
-0.365538821987967	-0.630035668107831
-0.938413542150304	1.1897264562457
1.08572598903802	1.23960902189376
1.71129487997497	0.260707727411386
-1.30075441934446	0.510471473902412
-0.525916274560184	-0.064500516920506
1.98348695103341	0.24186256545668
0.337269022879108	1.50650931396736
1.28491098198804	1.67089920705705
-1.35839078091606	0.239313711851878
-0.323166838068172	1.67190881611055
-0.120127010156819	1.24524144576207
0.139500789759462	0.354258590330161
1.15624096760826	-0.990700300746432
-1.26844676537733	-0.628109064440555
0.815322749447983	0.966290068867842
0.246633117159375	1.23690056374992
2.07177530726546	0.959987522891582
1.81787402737256	-0.417550206067711
0.609449460790033	-0.611286347890489
-0.916314545454867	-1.22888137717588
-0.653028404466386	-1.29893503519249
1.83868913966582	-1.27461656607364
2.2372381089785	-0.624896349439894
-1.178373865824	-0.392697137040658
1.71524116973573	0.655636085091574
1.31122166428592	0.420905506702969
0.173584174425365	-1.7099918357812
0.613969544873246	-1.0819972634467
-0.0257842322690726	0.734380550775426
-0.733819193319924	-0.494769443624095
-0.293943599949332	-1.56200884317204
0.672247132501183	-0.322443993376401
0.251320899226081	-0.259609797681087
-1.10576927690389	0.0344652829023721
1.02096479365179	1.61021336604553
-0.0616881822542682	1.6120908406683
2.15374813869518	-0.360049976420813
2.00673492325604	-0.000849466442837723
1.96088491308047	0.6515060676646
-0.598324877817446	0.836720579282747
0.82114151438904	0.520119618607674
0.103970645405931	-1.44323767919794
0.9273508158343	-0.701420303210897
0.0827576012410301	-0.741506771291398
0.330153530091996	0.2962394720272
0.350451155415259	-0.691153422488154
-0.501019140139314	0.323477738371075
1.11476361938515	0.292827750362109
1.45991249047036	-0.146691175970086
-0.132614825636221	0.202218744037352
-0.89265368549779	0.151120014251487
1.64786366009258	-0.651103656650388
-0.44223347053766	-0.977205567206415
0.910461290762905	0.810049033442065
-0.829064453368969	-0.257610665014749
0.70647187288541	-1.23160473471239
1.16212000544566	-1.24341486345161
-0.0194105557883835	-0.987216493469581
1.48252617456214	-0.883437447705346
-0.261924789467586	0.460580434594885
-0.276138508934829	0.872086334703972
0.328439995854512	0.845659555463084
0.500938160291084	0.700732767536419
-0.0358894669279197	-0.611165841816346
1.37545403073392	0.751168668453326
1.04430553849502	-0.565188283339245
1.21367451981415	1.06289432400643
-0.241996218822281	1.0701120331971
0.924199428060171	0.20923098013568
0.596227488437295	0.282442005265457
-0.151059578254271	-1.19162057528222
-0.708025284869383	0.0290367481471042
1.53729689298772	0.355282167712311
0.11008388330554	1.14923796465701
-0.0993761030060831	-0.134528210881268
0.0584413790031047	0.57977277392197
1.25864620265586	0.155774860594832
1.65651380402766	-0.270926700476716
0.952119473385215	-1.00854334395561
0.827439072806325	-0.216114920965138
1.51702438747413	0.804047096939915
0.858980231292017	1.1266993210399
0.233451365503054	-1.08529867758726
-0.46160035128168	-0.255761276817565
-0.607551748940209	0.483291467139998
1.28152161863445	-0.855479508579868
1.80901248624622	-0.145426692637108
1.30888710961487	-0.565171950360873
0.410311096605476	1.18506904705136
-0.483774520500832	-0.787872972793139
0.309877997191475	-0.40792532782703
-0.580969761428254	-0.627060931599032
1.04734123925834	0.643332644718405
-0.220287428056755	-0.537528145627426
-0.798603520916254	0.293924565455413
-0.453938382368858	0.767020667839946
1.09646316572517	-0.794807127081718
-0.513873978207942	0.104559202886534
-0.680053657694889	0.618051206646182
0.188655160210935	0.725959554032698
1.15964784361288	-0.233519587893503
1.70716466407592	0.50049263030418
1.58284960187983	0.151377201190787
0.0272649880410806	0.199410778122504
0.607099158398883	0.565485737298511
0.0199509257616247	0.884697060472828
1.67108534946427	-0.479322390090434
0.387398799065486	-0.235431276955643
-0.147230111454111	0.0489654904169896
0.492932533690615	-0.734651944640302
0.377440455707216	1.04140305252701
-0.651477170653211	-0.217837189503114
0.48405037139189	-0.564167934521495
-0.0434280520933352	-0.830356553020399
0.53130397718889	-0.202583090110681
0.802253163218052	0.703700857814824
1.38388786500266	0.0761413828649854
1.41951206987274	-0.289958615045655
-0.362191056174675	-0.419059957294499
-0.514203867211136	-0.459173758489206
0.728568064853326	-0.674415493411785
1.098392994211	-0.406967804823978
1.18092803043267	0.513618135805373
0.364227015885296	0.456560951212741
0.460617672843097	0.211167492430886
-0.416765229987066	0.458771087499693
-0.222745202328858	-0.188174803541918
0.775047617498412	-0.98674059760127
0.0511261090526367	-0.504970784762642
0.125840699644648	-0.213080385846169
0.669826477480046	1.03801905576553
1.22295562410939	0.785759079211266
0.953758174648658	-0.469770333267207
-0.247124248081163	0.281488398537798
1.12446994068034	0.149534203652314
0.106396152176807	-0.872265010573597
-0.0754379497534461	0.546012113111849
0.879508041152097	-0.859881610856003
0.699632497608128	-0.492003096070084
0.904155762241693	0.329551971521323
0.817814793318722	-0.336109749202915
0.226464439950486	0.235992687452454
0.36422929106432	0.714743626286362
0.336063253815794	-0.958295502696446
1.44205457581133	-0.527942990031732
1.28254347359463	-0.141684798803804
0.449214294582568	0.839986849690044
-0.0553187064320849	-0.457381096749163
1.01757404615764	0.799039697003717
0.814562364285176	0.186730723393537
1.05313864317689	-0.178454452470839
0.229683389244688	-0.773577320246455
-0.174825540566122	0.752543745254025
0.660184810926906	-0.75958287448453
0.153750628603311	0.510623306703905
1.43866981812669	0.45399532872354
0.10188406932886	-0.364741647433717
-0.159657999291791	-0.296400696785813
0.692315284240824	0.169374242886332
0.727813112527761	0.469150848650372
1.22821049544231	0.28983603921997
0.724296068435836	-0.19228197144718
0.89024530562181	0.622384373713635
0.60775280049386	0.409065893222423
-0.390044205357913	0.0758706490271022
0.381459841332875	-0.554415561612226
0.931907238661072	-0.135333124478659
0.137450542962208	0.858742832988188
1.1505285474403	-0.512442679508032
-0.432314044855992	-0.126291688841485
1.37089066796809	-0.390590988897021
1.28230405356056	0.587262534630168
1.48264979308526	-0.0321554603047782
-0.314593182954972	-0.271773002439195
0.199274886966101	-0.448923042624969
1.11751334246033	0.0348968570348306
0.800313574904367	0.85242434123488
-0.149936032239109	-0.63701346058133
0.393148980973889	-0.794700289941634
0.743497945335325	0.59643540457367
-0.388302872735848	0.354579074802855
0.429996334483873	0.327670596736508
1.0133901229135	0.119989727929331
0.0348548100105216	0.320256194527855
0.558644455656799	-0.482078354592473
0.00988993211547599	-0.225750985528286
-0.453908749162313	0.203234319412922
0.919455490166761	0.435749778170785
-0.190416795105909	0.383056016087861
-0.185343907728769	-0.0480586644168873
0.409224702488714	0.548969801083514
1.31772030056253	-0.261838258487711
0.219159478082689	0.440480949415602
0.132865142663856	0.162663488524986
0.077643576230359	-0.642258255240635
-0.107925354172328	0.643852338056651
1.32417902053666	0.31002733663105
-0.208892688743338	0.144283417145166
1.38302704389418	-0.0325662920811988
0.0737707689816557	0.680037626243365
0.0770166901979316	0.423993704054989
-0.186638873238499	0.552585632663137
0.59439800106406	0.682384142076554
1.01732952516547	0.35998582208893
0.565267202553484	-0.305030372224308
-0.178346709914406	-0.455430723111564
1.23684033842512	-0.47716199716086
0.39650909807578	-0.344473545989505
0.377578400978364	0.188820321486029
-0.302787467609121	0.0538469311286283
0.623403348541575	-0.146142020519287
0.899436630005376	-0.571156527807155
-0.0356327078043435	0.089210422846498
0.538677387093464	0.180550499232114
0.923780351295057	-0.369241283996378
1.10958694789579	0.421341210183613
0.990218579583233	0.574431587605132
1.13290735744596	-0.0628004093279433
0.50575400705956	0.605062768639481
0.394529445498243	-0.450801640875032
1.29020138478639	0.0623575369706653
0.800822422496627	0.408915938955363
1.21633970254134	0.377360918702184
0.305991197042033	-0.606557045571514
-0.0533204544648923	0.309858051232036
0.314100566097189	-0.184838691545577
0.218812755247279	-0.151905692463915
-0.352110912179026	-0.152225988022354
0.16361037154411	0.596166496268951
1.01745105678628	0.207349486142373
0.729898141142677	-0.383518946216467
0.451961592084792	-0.164591122355441
0.297501946976283	0.161428336312827
-0.0178157236302024	-0.130321065469851
0.643508028588703	-0.432175148012986
1.08593630791389	-0.314110387412165
1.19169955821782	-0.146001598675083
-0.0830480567274659	-0.218893297731789
0.919704799128396	-0.217763938320937
0.184159951840347	-0.357758162579924
-0.0705905020053375	-0.361142051130799
1.33864337502476	0.228380887065364
0.304513341353327	0.397760457551848
0.223492857021092	0.329337245111488
0.28223207033845	0.498293485495976
0.345587903533466	0.620517327743153
-0.377261252980006	-0.036344770866922
0.852932014715649	-0.415876660047552
0.271714693733203	-0.487801805341171
0.681247145824492	0.25788781273224
-0.146419005371129	0.447580287960633
0.544658874471676	0.339726165074796
0.0200067064825301	0.516592863696269
0.0672203253381485	-0.12962181710534
0.824638930440743	0.279376628319931
-0.125450691735674	0.29837760378575
1.06201533354095	-0.0804182872662607
0.861929437155799	-0.124552015147932
0.612640223778096	0.131377580706149
0.871577597448449	0.137432234509739
0.102406914144613	0.279059424461001
-0.0945930035782839	-0.0626526250993851
0.783504835197212	-0.115315995531704
0.73811933141858	-0.283611904675499
0.910271861379678	0.510100328127864
0.696921525938993	0.400021310639242
0.647555023806835	0.481234159723769
0.449725033231583	-0.294978398389818
0.431147050295231	0.419945457900229
1.2037755462595	0.198381701155705
0.752993882842	0.128837988759956
0.62030589453208	-0.257872128706665
1.25330387259001	-0.212347548395006
0.117428355115866	-0.439545158273776
-0.0469941817998278	0.163613315002118
0.622575471351654	-0.528455932851015
-0.267616688654728	0.202479277554707
0.979645448064479	0.298962426584209
0.21592036321338	0.127309941612605
0.937363240120651	0.0891036541463569
1.22212030996753	0.0843430848667761
-0.23917153959458	-0.0982822469150628
0.789921803952315	-0.483386234353666
0.319235998164445	-0.337336223832541
0.991977173384906	-0.415326474029187
-0.00032913255719502	-0.430665413789742
0.37906738606066	-0.135929271300339
1.16556316991566	-0.300500445639781
0.567008576370855	-0.375756517807712
0.887099981247392	-0.307704990506743
0.0769766562271237	-0.302488797712436
0.479074757515644	-0.499015976663
0.187107183570359	-0.27681611536906
-0.211787162264	0.0182512523762435
0.0783463769016454	0.134609755549163
0.989041857400674	-0.0731661372483065
1.08556153895059	0.216570480052265
0.990870509407693	-0.232687386770263
-0.080537371677465	-0.0037097115607985
0.678251472325804	-0.125130330655489
1.1892345797095	0.0247987697845949
0.016556717479825	0.383783037904581
0.478424293932882	0.292854751414063
-0.108946372963386	0.13826584981882
1.04363448845794	0.0516288616547207
0.565785441910155	-0.132663370209989
0.145080693528476	-0.111521169856419
1.12591518628023	-0.129085486824622
-0.155150419449371	-0.234489599353173
0.153912165586318	0.225905200146147
0.773482813516804	0.241331721481903
0.809786160096816	0.0969820744232319
1.09957426490122	-0.242028142592169
0.537776389821214	0.251949085303878
0.65813205340026	0.313450376212313
0.630038286013294	0.223902466234615
0.425126024607154	0.151915604638971
0.485007470566873	0.128401701290362
-0.0776431539669802	0.225230036757169
0.319318565485337	-0.277459099489757
0.379242755184744	0.270910130083246
0.87481122496836	0.391405896215824
0.284706639006255	0.23122016526416
-0.187097614976507	-0.140328420446083
0.251572283076958	-0.318234728031184
-0.104432186008198	-0.292145348549467
0.491674575094478	0.411758816242155
0.388552242044144	0.381792170729528
1.15470119770273	0.0895913818513068
-0.241155772872153	0.0721272002166793
0.946980259191307	0.375095857260346
0.515432070991319	-0.267530620241603
-0.0304456847282863	-0.282513564645058
0.656001770503164	-0.198765373557711
0.505907677998316	-0.116481164188477
0.272702773781489	-0.132067128003164
0.145225652680028	0.406244414600251
-0.0342855757361621	-0.0698552301897455
0.00293311452890327	0.276508341294132
0.884331373580869	0.272719859992312
1.05999020213341	0.269453552332861
0.0676503190327575	-0.189484396159932
0.546765564781656	0.103014760665504
0.427763013848134	-0.395113073350126
0.794457732514542	-0.278612191614517
0.627587912486914	-0.376791886399033
0.030395223032434	0.0862417261318872
0.991362579746213	-0.128984571399268
0.286053242822138	0.341112391563512
0.935524288764526	-0.275770899448897
0.342274115984883	0.136367885932952
0.177253546154095	-0.213934064559715
0.958317597031441	0.139441454070456
0.603514576121932	0.354080811503177
1.07438772148641	0.0020358104744302
0.0837907633226385	0.366169496304335
0.65703716933964	0.113233941197493
0.778413325479791	-0.174570962648007
0.249055225485703	0.389192884026313
0.727397769174338	-0.091374775395731
0.26141140685685	-0.198784727230193
0.833424192635243	0.359899487830373
-0.155023057720279	0.110504919126992
0.159937312250674	0.278100623239545
-0.0303246160807308	-0.191655116243309
1.07447386751481	0.162031470544637
0.12997484648071	-0.264128432975888
-0.0878000636453065	0.0448220672342297
0.00355534309122892	0.149755273085503
0.246628916713383	0.174910321792629
0.472372898769231	-0.242366713662287
0.869691103030173	-0.186143624811336
-0.137703796953448	-0.00093429518689873
0.973765310970309	0.238514297620754
-0.147208045810654	-0.169782076893508
-0.155678175427853	-0.0836799033207851
0.76194408862666	-0.33441353336496
0.878081284394038	-0.247194616597606
0.705773684060547	0.0923536433191499
0.548028750020005	0.386850291513125
0.0308295339026487	-0.0977069608583972
0.897393891938957	-0.0911477132088637
0.0945280225906707	0.234791800909884
0.138672955883306	-0.32887608099651
0.703417414711537	0.345106292298829
0.715681747860707	0.222864592366825
0.761079331662628	0.17947776817344
0.893415945856367	0.0811452962186987
0.32477038661405	-0.109114466434501
0.671475665484608	-0.246749802313292
0.874364388642072	0.222893854507176
0.171442835292412	0.114841810045864
0.367742154208868	-0.285787974144968
1.10760187561367	0.0969181490527804
0.439428240653574	0.258310791309398
0.593785298961618	0.178610182057626
0.347175931723121	0.230316872277812
0.82218742411767	-0.0875620035598788
0.986832576192865	0.0478691719336925
0.112713906170424	-0.151407790935976
0.0300239293501543	-0.285961381032714
0.261935770063221	0.116026425975144
-0.0158150171323321	0.233716385391268
0.485802534064427	-0.317524350605754
0.385904380197345	0.115340830190641
0.504919247833012	0.348113244243671
0.602537214074711	-0.219740197458352
0.419654992715151	-0.118906464551927
0.736642874712218	0.273688908086358
0.406142592403646	-0.178650556870475
0.177802074987852	0.187826336821254
0.125030070731352	0.0999138551983423
0.93914458311321	-0.0578982834857234
0.264750912949828	0.300556600646387
1.14655175987193	-0.00103492750283925
0.382900702206671	0.335234079831079
1.08035638766602	-0.129319408853907
0.340272643549338	-0.232576355996992
1.0117905774436	-0.180042136880123
0.954467538411023	-0.177713066559906
0.0915339405801971	-0.252033875616085
0.188162149591918	-0.106808620773445
0.180382331643283	-0.159120308960016
0.0667131291777989	0.189604111527184
0.918031540846687	0.162034889571959
1.04546768500912	-0.0261274922639435
0.203298203074084	0.281143518601162
0.0415753750535515	0.23690364010884
0.619273409862249	-0.295115498102458
0.00650332644060812	-0.170486859291031
0.765722375476723	-0.215155041903235
0.848395701984395	0.0661767902139769
0.496391082423999	-0.161218458884867
-0.03999592381655	0.0480568300269092
-0.0774597148043455	0.0907661132998492
1.05487549566171	0.0895122462122774
0.105739006288875	-0.0961689956539196
0.494767510167811	0.173373230984454
0.561078829206505	-0.264100396641421
1.08977013749111	-0.0470609620399246
0.711297021779675	-0.240881226145323
0.492272785532397	0.251990443049609
0.566542211057919	-0.184995552593008
0.643796606955793	-0.104507450391592
0.600303682955316	-0.0942256068671938
0.836677955221921	-0.161755534202425
0.52028651940859	0.294843333930912
0.449105165058009	0.112025435309778
0.773670014312939	0.0851926877277294
0.460344890237822	-0.0967362095801346
0.302980628682701	0.103954770636032
0.743369054363322	-0.152742569830306
0.831975373943481	0.14038167744217
0.858839438685542	-0.0657802389229142
-0.0378413158045423	-0.026618313916848
0.231262307791136	-0.0991065829255362
0.587199991598709	0.218153911198707
0.83785522778933	0.229667068740215
1.0351050157382	0.163123561538781
0.284334983210756	-0.230323626969424
0.853501450125233	0.182352270803484
-0.0504924674574825	-0.111568168846955
0.229995284079008	-0.224109529823665
0.398749798938894	0.239347080959558
0.421971430079455	-0.218816182496135
0.686183103754935	-0.172059225220126
0.983177988262675	0.195101745944528
0.638712956405245	0.190628963726191
0.580938929519917	0.093512447123884
-0.129324991986528	-0.0490889412023563
0.0645895333113598	0.0882344938936836
0.620063032953186	0.0832191294404591
0.979195313075673	0.0856541846697936
0.53811403996949	-0.0994698447994888
0.523483474147331	0.137322320395993
0.353505267350058	-0.198688534804348
0.00686331938882888	-0.0643750636827142
0.293203694016027	0.276005412645916
0.339312779590633	-0.143294143093472
1.04161920352971	-0.145586144241338
-0.0600643955147654	-0.145917165323844
0.758397201457183	-0.078601590309145
0.30979483923522	0.207655124618266
0.0374323143417694	0.123535584922185
0.510583011782843	0.0945351539852885
0.695272413833381	-0.0847097020170733
0.887842592949015	-0.148676254812642
0.343215785399489	0.177614444012416
0.635837640091694	0.254744094744104
0.71702761704779	0.130188624988479
0.421107366142872	0.183967806185295
-0.000560713893560185	0.108402474021296
0.139645645819452	-0.174536161914054
0.0714898467305078	-0.0787586521707723
1.01413992356261	-0.0941896653046117
0.00337143307196133	0.0525431853862655
0.953364559724985	-0.0887991817375629
0.216965143883907	0.199576448688779
0.954258272104505	0.0484536086933498
0.127101776946948	0.207786829860339
0.782016196149369	0.149565811458522
0.737584232791162	0.0699684436822931
0.564973340156702	-0.228807894736818
0.908990792805262	0.129523592742685
0.50002265279404	-0.202056087552612
0.678547283363481	0.223793789608419
0.662688469995236	0.157745715936672
1.03934073664812	0.0178882240430503
0.355101924224903	-0.101221245911613
0.208687195160128	-0.196649762282432
0.992200200344104	0.165888920517922
0.920671643496144	-0.181384419897828
0.542906245130691	-0.159625793895955
0.0471246569371714	-0.163197690852101
0.58439702917379	0.137667507809759
0.919569405986957	0.0471836349706828
1.01150318080326	-0.0330978765040833
0.417878181751785	0.0946620885001396
0.789474541858284	-0.0642408646230079
0.716339431954488	-0.123082558627175