Variables="X","Y"
Zone T="Grid"
 N=  397,E= 789,F=FEPOINT ET=QUADRILATERAL
1	0
0.997214	0.0004
0.99438	0.000795
0.991501	0.001204
0.988572	0.001609
0.985597	0.002025
0.982573	0.002445
0.9795	0.002875
0.976377	0.00331
0.973203	0.003746
0.969978	0.004186
0.966701	0.004631
0.963373	0.005082
0.959993	0.005539
0.95656	0.006001
0.953073	0.006469
0.949532	0.006942
0.945936	0.007419
0.942285	0.007901
0.938579	0.008388
0.934817	0.008881
0.930998	0.009381
0.927122	0.009889
0.923188	0.0104
0.919196	0.010913
0.915144	0.01143
0.911034	0.011952
0.906865	0.012482
0.902636	0.013018
0.898345	0.013558
0.893994	0.014101
0.889581	0.014651
0.885107	0.015209
0.880571	0.015771
0.875971	0.016335
0.871307	0.0169
0.866581	0.017471
0.861791	0.018048
0.856937	0.018631
0.852017	0.019217
0.847034	0.019806
0.841985	0.020403
0.83687	0.021004
0.831689	0.021606
0.826442	0.022208
0.821128	0.022818
0.815749	0.023437
0.810302	0.024057
0.804787	0.024676
0.799205	0.025298
0.793556	0.025927
0.787839	0.026559
0.782053	0.027191
0.7762	0.027828
0.770279	0.028471
0.764289	0.029114
0.75823	0.029758
0.752104	0.030409
0.745908	0.031061
0.739643	0.031708
0.733309	0.032359
0.726908	0.03302
0.720437	0.033678
0.713898	0.034332
0.70729	0.034989
0.700613	0.03565
0.693869	0.03631
0.687055	0.036967
0.680168	0.037624
0.673202	0.038287
0.666156	0.03895
0.659031	0.039611
0.651826	0.040273
0.644542	0.040932
0.637178	0.041589
0.629735	0.04225
0.622213	0.042911
0.61461	0.043561
0.606928	0.044208
0.599168	0.044857
0.591329	0.045506
0.583411	0.046145
0.575414	0.046776
0.567339	0.047409
0.559187	0.048042
0.550956	0.048656
0.542649	0.049265
0.534266	0.049874
0.525806	0.050469
0.51727	0.051051
0.50866	0.051625
0.499976	0.052189
0.491219	0.052739
0.482389	0.053282
0.473488	0.053811
0.464515	0.054326
0.455472	0.054821
0.44636	0.055294
0.437182	0.055759
0.427936	0.056199
0.418625	0.05662
0.409249	0.05702
0.399812	0.057392
0.390313	0.057739
0.380755	0.058067
0.37114	0.058358
0.361468	0.05862
0.351742	0.058855
0.341964	0.059054
0.332211	0.059218
0.322541	0.059347
0.31295	0.05943
0.304732	0.05947
0.296572	0.059488
0.288463	0.059472
0.280402	0.059423
0.272385	0.059341
0.264407	0.059227
0.256466	0.05908
0.248564	0.058902
0.240701	0.05869
0.232881	0.058443
0.22511	0.058159
0.217394	0.057838
0.209739	0.05748
0.202153	0.057086
0.194643	0.056654
0.187219	0.056186
0.179889	0.055679
0.172659	0.055134
0.165543	0.054552
0.158536	0.053933
0.151643	0.053278
0.144866	0.052587
0.13821	0.051858
0.131679	0.051091
0.125301	0.05029
0.119093	0.04946
0.113015	0.048597
0.107094	0.047706
0.101376	0.046792
0.095773	0.045842
0.090315	0.04486
0.085027	0.043852
0.079886	0.042816
0.074909	0.041755
0.070096	0.040671
0.065448	0.039563
0.060954	0.03843
0.056625	0.037275
0.052465	0.0361
0.048472	0.034905
0.044631	0.033688
0.040955	0.032455
0.037438	0.031204
0.03408	0.029932
0.030882	0.02864
0.027847	0.027332
0.024974	0.02601
0.022262	0.024676
0.019715	0.023331
0.017337	0.02198
0.015114	0.020617
0.013067	0.019255
0.01119	0.017891
0.009482	0.016533
0.007935	0.015184
0.006587	0.013885
0.00539	0.012605
0.004348	0.011357
0.003445	0.010138
0.002682	0.008969
0.002062	0.007887
0.001547	0.006852
0.00113	0.005876
0.000797	0.004948
0.00054	0.004082
0.00035	0.003291
0.000211	0.002558
0.000114	0.001873
4.9e-05	0.001235
1.3e-05	0.000643
0	0.000101
6e-06	-0.00042
3e-05	-0.000969
7.9e-05	-0.001561
0.000157	-0.002204
0.000272	-0.002903
0.000434	-0.003665
0.000653	-0.004486
0.000941	-0.005371
0.001299	-0.00629
0.001745	-0.007267
0.002293	-0.008308
0.002955	-0.009406
0.003726	-0.010534
0.004604	-0.011677
0.005621	-0.012863
0.006779	-0.014078
0.008092	-0.015327
0.009552	-0.016592
0.011137	-0.017851
0.012876	-0.019121
0.01478	-0.020402
0.016847	-0.021688
0.019078	-0.022979
0.021477	-0.024271
0.024046	-0.025563
0.026785	-0.026853
0.029697	-0.02814
0.03278	-0.029417
0.036039	-0.030684
0.039473	-0.031937
0.043084	-0.033178
0.04686	-0.034403
0.0508	-0.03561
0.054906	-0.036797
0.059178	-0.037964
0.063614	-0.039108
0.068214	-0.04023
0.072977	-0.041327
0.077901	-0.0424
0.082987	-0.043448
0.088232	-0.04447
0.093636	-0.045464
0.099198	-0.046429
0.104916	-0.047364
0.11079	-0.048269
0.116817	-0.049143
0.122996	-0.049987
0.129327	-0.050801
0.135807	-0.051582
0.142435	-0.052327
0.149209	-0.053036
0.156129	-0.05371
0.163191	-0.05435
0.170395	-0.054954
0.177739	-0.055522
0.185221	-0.056052
0.192839	-0.056544
0.200593	-0.056999
0.208479	-0.057418
0.216497	-0.057798
0.224645	-0.05814
0.232922	-0.058444
0.241325	-0.058708
0.249854	-0.058933
0.258507	-0.059121
0.267282	-0.059272
0.276178	-0.059384
0.285195	-0.059457
0.29433	-0.059487
0.303582	-0.059475
0.31295	-0.05943
0.322541	-0.059347
0.332211	-0.059218
0.341964	-0.059054
0.351742	-0.058855
0.361468	-0.05862
0.37114	-0.058358
0.380756	-0.058067
0.390313	-0.057739
0.399812	-0.057392
0.40925	-0.05702
0.418625	-0.05662
0.427936	-0.056199
0.437182	-0.055759
0.446361	-0.055294
0.455472	-0.054821
0.464515	-0.054326
0.473488	-0.053811
0.48239	-0.053282
0.491219	-0.052739
0.499976	-0.052189
0.50866	-0.051625
0.51727	-0.051051
0.525806	-0.050469
0.534266	-0.049874
0.542649	-0.049265
0.550956	-0.048656
0.559187	-0.048042
0.567339	-0.047409
0.575414	-0.046776
0.583411	-0.046145
0.591329	-0.045506
0.599168	-0.044857
0.606928	-0.044208
0.61461	-0.043561
0.622213	-0.042911
0.629735	-0.04225
0.637178	-0.041589
0.644542	-0.040932
0.651826	-0.040273
0.659031	-0.039611
0.666156	-0.03895
0.673202	-0.038287
0.680168	-0.037624
0.687055	-0.036967
0.693869	-0.03631
0.700614	-0.03565
0.70729	-0.034989
0.713898	-0.034332
0.720437	-0.033678
0.726908	-0.03302
0.733309	-0.032359
0.739643	-0.031708
0.745908	-0.031061
0.752104	-0.030409
0.758231	-0.029758
0.764289	-0.029114
0.770279	-0.028471
0.7762	-0.027828
0.782053	-0.027191
0.787839	-0.026559
0.793556	-0.025927
0.799205	-0.025298
0.804787	-0.024676
0.810302	-0.024057
0.815749	-0.023437
0.821128	-0.022818
0.826442	-0.022208
0.831689	-0.021606
0.83687	-0.021004
0.841985	-0.020403
0.847034	-0.019806
0.852018	-0.019217
0.856937	-0.018631
0.861791	-0.018048
0.866581	-0.017471
0.871307	-0.0169
0.875971	-0.016335
0.880571	-0.015771
0.885107	-0.015209
0.889582	-0.014651
0.893994	-0.014101
0.898345	-0.013558
0.902636	-0.013018
0.906865	-0.012482
0.911034	-0.011952
0.915144	-0.01143
0.919196	-0.010913
0.923188	-0.0104
0.927122	-0.009889
0.930998	-0.009381
0.934817	-0.008881
0.938579	-0.008387
0.942285	-0.007901
0.945936	-0.007419
0.949532	-0.006942
0.953073	-0.006469
0.95656	-0.006001
0.959993	-0.005539
0.963373	-0.005082
0.966701	-0.004631
0.969978	-0.004187
0.973203	-0.003747
0.976377	-0.00331
0.9795	-0.002874
0.982573	-0.002444
0.985597	-0.002027
0.988572	-0.001607
0.991501	-0.001204
0.99438	-0.000795
0.997214	-0.0004
2.43675736905003	-0.415639145371783
2.30755308286762	-0.813289049887866
2.09849615633231	-1.17538626832121
1.81872338030013	-1.48610541469105
1.48046216758242	-1.73186657130514
1.09849615633231	-1.90192879632657
0.689519094117724	-1.98885955447281
0.27140524104711	-1.98885955447281
-0.137571821167477	-1.90192879632657
-0.519537832417583	-1.73186657130514
-0.857799045135299	-1.48610541469105
-1.13757182116748	-1.17538626832121
-1.34662874770278	-0.813289049887863
-1.47583303388519	-0.415639145371782
-1.51953783241758	0.000184236263736509
-1.47583303388519	0.416007617899256
-1.34662874770278	0.813657522415337
-1.13757182116748	1.17575474084868
-0.857799045135298	1.48647388721853
-0.519537832417582	1.73223504383261
-0.137571821167477	1.90229726885404
0.271405241047111	1.98922802700028
0.689519094117725	1.98922802700028
1.09849615633231	1.90229726885404
1.48046216758242	1.73223504383261
1.81872338030013	1.48647388721852
2.09849615633231	1.17575474084868
2.30755308286762	0.813657522415337
2.43675736905003	0.416007617899255
2.48046216758242	0.000184236263736264
0.48046216758242	4.00018423626373
-7.51953783241758	-3.99981576373627
8.48046216758242	-3.99981576373627
377	376	199	199
269	97	268	268
389	388	49	49
329	38	328	328
385	384	134	134
253	113	114	114
389	2	1	1
324	42	323	323
389	3	2	2
276	89	90	90
389	4	3	3
256	110	255	255
389	5	4	4
273	93	272	272
389	6	5	5
301	64	65	65
389	7	6	6
286	80	285	285
389	8	7	7
282	84	281	281
389	9	8	8
251	115	116	116
389	10	9	9
236	131	132	132
389	11	10	10
235	132	133	133
389	12	11	11
243	125	242	242
389	13	12	12
240	128	239	239
389	14	13	13
233	134	135	135
389	15	14	14
231	137	230	230
389	16	15	15
225	143	224	224
389	17	16	16
223	145	222	222
389	18	17	17
223	144	145	145
389	19	18	18
243	124	125	125
389	20	19	19
271	94	95	95
389	21	20	20
265	100	101	101
389	22	21	21
255	111	254	254
389	23	22	22
228	140	227	227
389	24	23	23
216	152	215	215
389	25	24	24
213	154	155	155
389	26	25	25
245	123	244	244
389	27	26	26
238	129	130	130
389	28	27	27
212	155	156	156
389	29	28	28
208	160	207	207
389	30	29	29
254	111	112	112
389	31	30	30
250	116	117	117
389	32	31	31
241	126	127	127
389	33	32	32
229	139	228	228
389	34	33	33
209	158	159	159
389	35	34	34
207	161	206	206
389	36	35	35
229	138	139	139
384	383	150	150
224	144	223	223
389	38	37	37
204	163	164	164
389	39	38	38
242	125	126	126
389	40	39	39
239	129	238	238
389	41	40	40
226	141	142	142
389	42	41	41
201	165	166	166
389	43	42	42
199	167	168	168
389	44	43	43
240	127	128	128
389	45	44	44
234	134	233	233
389	46	45	45
224	143	144	144
389	47	46	46
188	178	180	180
389	48	47	47
209	159	208	208
389	49	48	48
227	141	226	226
388	50	49	49
184	180	182	182
388	51	50	50
184	182	183	183
388	52	51	51
219	148	149	149
388	53	52	52
212	156	211	211
388	54	53	53
191	175	176	176
388	55	54	54
234	133	134	134
388	56	55	55
218	149	150	150
388	57	56	56
205	163	204	204
388	58	57	57
193	174	192	192
388	59	58	58
222	145	146	146
388	60	59	59
221	146	147	147
388	61	60	60
201	166	200	200
388	62	61	61
197	170	196	196
388	63	62	62
210	157	158	158
388	64	63	63
203	164	165	165
388	65	64	64
196	171	195	195
388	66	65	65
194	173	193	193
388	67	66	66
197	169	170	170
388	68	67	67
180	178	179	179
388	69	68	68
198	169	197	197
388	70	69	69
189	178	188	188
388	71	70	70
193	173	174	174
388	72	71	71
198	168	169	169
388	73	72	72
200	167	199	199
388	74	73	73
217	150	151	151
388	75	74	74
205	162	163	163
388	76	75	75
192	174	175	175
388	77	76	76
215	153	214	214
388	78	77	77
190	176	177	177
387	79	78	78
199	168	198	198
387	80	79	79
187	180	186	186
387	81	80	80
191	176	190	190
387	82	81	81
189	177	178	178
387	83	82	82
186	184	185	185
387	84	83	83
182	180	181	181
387	85	84	84
186	180	184	184
387	86	85	85
188	180	187	187
387	87	86	86
190	177	189	189
387	88	87	87
192	175	191	191
387	89	88	88
194	172	173	173
383	382	161	161
195	172	194	194
387	91	90	90
195	171	172	172
387	92	91	91
196	170	171	171
387	93	92	92
200	166	167	167
387	94	93	93
202	165	201	201
387	95	94	94
203	165	202	202
387	96	95	95
204	164	203	203
387	97	96	96
206	162	205	205
387	98	97	97
206	161	162	162
387	99	98	98
207	160	161	161
386	100	99	99
208	159	160	160
386	101	100	100
210	158	209	209
386	102	101	101
211	157	210	210
386	103	102	102
211	156	157	157
386	104	103	103
213	155	212	212
386	105	104	104
214	154	213	213
386	106	105	105
214	153	154	154
386	107	106	106
215	152	153	153
386	108	107	107
216	151	152	152
386	109	108	108
217	151	216	216
386	110	109	109
218	150	217	217
386	111	110	110
219	149	218	218
386	112	111	111
220	148	219	219
386	113	112	112
220	147	148	148
386	114	113	113
221	147	220	220
386	115	114	114
222	146	221	221
386	116	115	115
225	142	143	143
386	117	116	116
226	142	225	225
385	118	117	117
227	140	141	141
382	381	168	168
228	139	140	140
385	120	119	119
230	138	229	229
385	121	120	120
230	137	138	138
385	122	121	121
231	136	137	137
385	123	122	122
232	136	231	231
385	124	123	123
232	135	136	136
385	125	124	124
233	135	232	232
385	126	125	125
235	133	234	234
385	127	126	126
236	132	235	235
385	128	127	127
237	131	236	236
385	129	128	128
237	130	131	131
385	130	129	129
238	130	237	237
385	131	130	130
239	128	129	129
385	132	131	131
241	127	240	240
385	133	132	132
242	126	241	241
385	134	133	133
244	124	243	243
384	135	134	134
244	123	124	124
384	136	135	135
245	122	123	123
384	137	136	136
245	121	122	122
384	138	137	137
246	121	245	245
384	139	138	138
246	120	121	121
384	140	139	139
247	120	246	246
384	141	140	140
247	119	120	120
384	142	141	141
248	119	247	247
384	143	142	142
248	118	119	119
384	144	143	143
249	118	248	248
384	145	144	144
249	117	118	118
384	146	145	145
250	117	249	249
384	147	146	146
251	116	250	250
384	148	147	147
252	115	251	251
384	149	148	148
252	114	115	115
384	150	149	149
253	114	252	252
383	151	150	150
254	113	253	253
383	152	151	151
254	112	113	113
383	153	152	152
255	110	111	111
383	154	153	153
256	109	110	110
383	155	154	154
257	109	256	256
383	156	155	155
257	108	109	109
383	157	156	156
258	108	257	257
383	158	157	157
258	107	108	108
383	159	158	158
383	161	160	160
383	160	159	159
375	374	218	218
259	107	258	258
259	106	107	107
382	162	161	161
260	106	259	259
382	163	162	162
260	105	106	106
382	164	163	163
261	105	260	260
382	165	164	164
261	104	105	105
382	166	165	165
262	104	261	261
382	167	166	166
262	103	104	104
382	168	167	167
263	103	262	262
381	169	168	168
263	102	103	103
381	170	169	169
264	102	263	263
381	171	170	170
264	101	102	102
381	172	171	171
265	101	264	264
381	173	172	172
266	100	265	265
380	174	173	173
266	99	100	100
376	375	207	207
267	99	266	266
380	176	175	175
267	98	99	99
380	177	176	176
268	98	267	267
380	178	177	177
268	97	98	98
380	179	178	178
366	365	1	1
269	96	97	97
270	96	269	269
379	181	180	180
270	95	96	96
379	182	181	181
271	95	270	270
379	183	182	182
272	94	271	271
379	184	183	183
272	93	94	94
379	185	184	184
273	92	93	93
379	186	185	185
274	92	273	273
374	373	233	233
274	91	92	92
379	188	187	187
275	91	274	274
378	189	188	188
275	90	91	91
378	190	189	189
276	90	275	275
373	372	250	250
277	89	276	276
378	192	191	191
277	88	89	89
378	193	192	192
278	88	277	277
378	194	193	193
279	88	278	278
372	371	267	267
279	87	88	88
377	196	195	195
279	86	87	87
377	197	196	196
280	86	279	279
377	198	197	197
280	85	86	86
371	370	288	288
281	85	280	280
376	200	199	199
281	84	85	85
376	201	200	200
282	83	84	84
376	202	201	201
283	83	282	282
376	203	202	202
283	82	83	83
376	204	203	203
284	82	283	283
376	205	204	204
284	81	82	82
376	206	205	205
285	81	284	284
376	207	206	206
375	209	208	208
375	208	207	207
362	361	360	360
285	80	81	81
286	79	80	80
375	210	209	209
287	79	286	286
375	211	210	210
287	78	79	79
375	212	211	211
288	78	287	287
375	213	212	212
288	77	78	78
375	214	213	213
289	77	288	288
375	215	214	214
289	76	77	77
375	216	215	215
290	76	289	289
375	217	216	216
290	75	76	76
375	218	217	217
291	75	290	290
374	219	218	218
291	74	75	75
374	220	219	219
292	74	291	291
374	221	220	220
293	74	292	292
374	222	221	221
293	73	74	74
374	223	222	222
293	72	73	73
374	224	223	223
294	72	293	293
374	225	224	224
294	71	72	72
374	226	225	225
295	71	294	294
374	227	226	226
296	71	295	295
374	228	227	227
296	70	71	71
374	229	228	228
296	69	70	70
374	230	229	229
297	69	296	296
374	231	230	230
297	68	69	69
374	232	231	231
298	68	297	297
374	233	232	232
298	67	68	68
373	234	233	233
299	67	298	298
373	235	234	234
299	66	67	67
373	236	235	235
300	66	299	299
373	237	236	236
301	66	300	300
373	238	237	237
301	65	66	66
373	239	238	238
302	64	301	301
373	240	239	239
303	64	302	302
373	241	240	240
303	63	64	64
373	242	241	241
303	62	63	63
373	243	242	242
304	62	303	303
373	244	243	243
304	61	62	62
373	245	244	244
305	61	304	304
373	246	245	245
305	60	61	61
373	247	246	246
306	60	305	305
373	248	247	247
306	59	60	60
373	249	248	248
307	59	306	306
373	250	249	249
307	58	59	59
372	251	250	250
308	58	307	307
372	252	251	251
308	57	58	58
372	253	252	252
309	57	308	308
372	254	253	253
310	57	309	309
372	255	254	254
310	56	57	57
372	256	255	255
310	55	56	56
372	257	256	256
311	55	310	310
372	258	257	257
311	54	55	55
372	259	258	258
312	54	311	311
372	260	259	259
312	53	54	54
372	261	260	260
313	53	312	312
372	262	261	261
313	52	53	53
372	263	262	262
314	52	313	313
372	264	263	263
314	51	52	52
372	265	264	264
315	51	314	314
372	266	265	265
316	51	315	315
372	267	266	266
316	50	51	51
371	268	267	267
316	49	50	50
371	269	268	268
317	49	316	316
371	270	269	269
317	48	49	49
371	271	270	270
318	48	317	317
371	272	271	271
319	48	318	318
371	273	272	272
319	47	48	48
371	274	273	273
319	46	47	47
371	275	274	274
320	46	319	319
371	276	275	275
321	46	320	320
371	277	276	276
321	45	46	46
371	278	277	277
321	44	45	45
371	279	278	278
322	44	321	321
371	280	279	279
323	44	322	322
371	281	280	280
323	43	44	44
371	282	281	281
323	42	43	43
371	283	282	282
324	41	42	42
371	284	283	283
325	41	324	324
371	285	284	284
325	40	41	41
371	286	285	285
326	40	325	325
371	287	286	286
326	39	40	40
371	288	287	287
327	39	326	326
370	289	288	288
327	38	39	39
370	290	289	289
328	38	327	327
370	291	290	290
329	37	38	38
370	292	291	291
329	36	37	37
370	293	292	292
330	36	329	329
370	294	293	293
330	35	36	36
370	295	294	294
331	35	330	330
370	296	295	295
332	35	331	331
370	297	296	296
332	34	35	35
370	298	297	297
332	33	34	34
370	299	298	298
333	33	332	332
370	300	299	299
333	32	33	33
370	301	300	300
334	32	333	333
370	302	301	301
334	31	32	32
370	303	302	302
335	31	334	334
370	304	303	303
335	30	31	31
370	305	304	304
336	30	335	335
370	306	305	305
336	29	30	30
370	307	306	306
337	29	336	336
370	308	307	307
337	28	29	29
370	309	308	308
338	28	337	337
370	310	309	309
338	27	28	28
370	311	310	310
339	27	338	338
370	312	311	311
339	26	27	27
370	313	312	312
340	26	339	339
370	314	313	313
340	25	26	26
370	315	314	314
341	25	340	340
370	316	315	315
342	25	341	341
370	317	316	316
342	24	25	25
369	318	317	317
343	24	342	342
369	319	318	318
343	23	24	24
369	320	319	319
343	22	23	23
369	321	320	320
344	22	343	343
369	322	321	321
344	21	22	22
369	323	322	322
345	21	344	344
369	324	323	323
346	21	345	345
369	325	324	324
346	20	21	21
369	326	325	325
346	19	20	20
369	327	326	326
347	19	346	346
369	328	327	327
347	18	19	19
369	329	328	328
348	18	347	347
369	330	329	329
348	17	18	18
369	331	330	330
349	17	348	348
369	332	331	331
350	17	349	349
369	333	332	332
350	16	17	17
369	334	333	333
351	16	350	350
369	335	334	334
351	15	16	16
369	336	335	335
351	14	15	15
369	337	336	336
352	14	351	351
369	338	337	337
352	13	14	14
369	339	338	338
353	13	352	352
369	340	339	339
354	13	353	353
369	341	340	340
354	12	13	13
369	342	341	341
354	11	12	12
369	343	342	342
355	11	354	354
369	344	343	343
355	10	11	11
369	345	344	344
356	10	355	355
369	346	345	345
357	10	356	356
369	347	346	346
357	9	10	10
369	348	347	347
358	9	357	357
369	349	348	348
358	8	9	9
369	350	349	349
358	7	8	8
369	351	350	350
359	7	358	358
369	352	351	351
359	6	7	7
369	353	352	352
360	6	359	359
369	354	353	353
361	6	360	360
369	355	354	354
361	5	6	6
369	356	355	355
361	4	5	5
369	357	356	356
362	4	361	361
369	358	357	357
369	360	359	359
369	359	358	358
363	3	4	4
363	4	362	362
369	363	362	362
369	362	360	360
364	2	363	363
363	2	3	3
369	364	363	363
364	1	2	2
386	385	117	117
369	1	364	364
371	397	370	370
397	365	366	366
397	366	367	367
367	366	1	1
397	367	368	368
368	367	1	1
397	368	369	369
369	368	1	1
397	369	370	370
370	369	317	317
377	199	198	198
372	397	371	371
377	195	194	194
372	396	397	397
378	191	190	190
396	372	373	373
379	187	186	186
396	373	374	374
379	180	179	179
396	374	375	375
380	175	174	174
396	375	376	376
382	396	381	381
396	376	377	377
396	377	378	378
378	377	194	194
396	378	379	379
379	378	188	188
396	379	380	380
380	379	179	179
396	380	381	381
381	380	173	173
385	119	118	118
382	395	396	396
387	90	89	89
395	382	383	383
389	37	36	36
395	383	384	384
394	1	365	365
395	384	385	385
391	390	1	1
395	385	386	386
395	386	387	387
387	386	99	99
395	387	388	388
388	387	78	78
391	395	390	390
395	388	389	389
395	389	390	390
390	389	1	1
365	397	394	394
391	397	395	395
397	391	392	392
392	391	1	1
397	392	393	393
393	392	1	1
397	393	394	394
394	393	1	1
Variables="X","Y"
Zone N=397 E=364,Datapacking=Point, Zonetype=Fetriangle
1	0
0.997214	0.0004
0.99438	0.000795
0.991501	0.001204
0.988572	0.001609
0.985597	0.002025
0.982573	0.002445
0.9795	0.002875
0.976377	0.00331
0.973203	0.003746
0.969978	0.004186
0.966701	0.004631
0.963373	0.005082
0.959993	0.005539
0.95656	0.006001
0.953073	0.006469
0.949532	0.006942
0.945936	0.007419
0.942285	0.007901
0.938579	0.008388
0.934817	0.008881
0.930998	0.009381
0.927122	0.009889
0.923188	0.0104
0.919196	0.010913
0.915144	0.01143
0.911034	0.011952
0.906865	0.012482
0.902636	0.013018
0.898345	0.013558
0.893994	0.014101
0.889581	0.014651
0.885107	0.015209
0.880571	0.015771
0.875971	0.016335
0.871307	0.0169
0.866581	0.017471
0.861791	0.018048
0.856937	0.018631
0.852017	0.019217
0.847034	0.019806
0.841985	0.020403
0.83687	0.021004
0.831689	0.021606
0.826442	0.022208
0.821128	0.022818
0.815749	0.023437
0.810302	0.024057
0.804787	0.024676
0.799205	0.025298
0.793556	0.025927
0.787839	0.026559
0.782053	0.027191
0.7762	0.027828
0.770279	0.028471
0.764289	0.029114
0.75823	0.029758
0.752104	0.030409
0.745908	0.031061
0.739643	0.031708
0.733309	0.032359
0.726908	0.03302
0.720437	0.033678
0.713898	0.034332
0.70729	0.034989
0.700613	0.03565
0.693869	0.03631
0.687055	0.036967
0.680168	0.037624
0.673202	0.038287
0.666156	0.03895
0.659031	0.039611
0.651826	0.040273
0.644542	0.040932
0.637178	0.041589
0.629735	0.04225
0.622213	0.042911
0.61461	0.043561
0.606928	0.044208
0.599168	0.044857
0.591329	0.045506
0.583411	0.046145
0.575414	0.046776
0.567339	0.047409
0.559187	0.048042
0.550956	0.048656
0.542649	0.049265
0.534266	0.049874
0.525806	0.050469
0.51727	0.051051
0.50866	0.051625
0.499976	0.052189
0.491219	0.052739
0.482389	0.053282
0.473488	0.053811
0.464515	0.054326
0.455472	0.054821
0.44636	0.055294
0.437182	0.055759
0.427936	0.056199
0.418625	0.05662
0.409249	0.05702
0.399812	0.057392
0.390313	0.057739
0.380755	0.058067
0.37114	0.058358
0.361468	0.05862
0.351742	0.058855
0.341964	0.059054
0.332211	0.059218
0.322541	0.059347
0.31295	0.05943
0.304732	0.05947
0.296572	0.059488
0.288463	0.059472
0.280402	0.059423
0.272385	0.059341
0.264407	0.059227
0.256466	0.05908
0.248564	0.058902
0.240701	0.05869
0.232881	0.058443
0.22511	0.058159
0.217394	0.057838
0.209739	0.05748
0.202153	0.057086
0.194643	0.056654
0.187219	0.056186
0.179889	0.055679
0.172659	0.055134
0.165543	0.054552
0.158536	0.053933
0.151643	0.053278
0.144866	0.052587
0.13821	0.051858
0.131679	0.051091
0.125301	0.05029
0.119093	0.04946
0.113015	0.048597
0.107094	0.047706
0.101376	0.046792
0.095773	0.045842
0.090315	0.04486
0.085027	0.043852
0.079886	0.042816
0.074909	0.041755
0.070096	0.040671
0.065448	0.039563
0.060954	0.03843
0.056625	0.037275
0.052465	0.0361
0.048472	0.034905
0.044631	0.033688
0.040955	0.032455
0.037438	0.031204
0.03408	0.029932
0.030882	0.02864
0.027847	0.027332
0.024974	0.02601
0.022262	0.024676
0.019715	0.023331
0.017337	0.02198
0.015114	0.020617
0.013067	0.019255
0.01119	0.017891
0.009482	0.016533
0.007935	0.015184
0.006587	0.013885
0.00539	0.012605
0.004348	0.011357
0.003445	0.010138
0.002682	0.008969
0.002062	0.007887
0.001547	0.006852
0.00113	0.005876
0.000797	0.004948
0.00054	0.004082
0.00035	0.003291
0.000211	0.002558
0.000114	0.001873
4.9e-05	0.001235
1.3e-05	0.000643
0	0.000101
6e-06	-0.00042
3e-05	-0.000969
7.9e-05	-0.001561
0.000157	-0.002204
0.000272	-0.002903
0.000434	-0.003665
0.000653	-0.004486
0.000941	-0.005371
0.001299	-0.00629
0.001745	-0.007267
0.002293	-0.008308
0.002955	-0.009406
0.003726	-0.010534
0.004604	-0.011677
0.005621	-0.012863
0.006779	-0.014078
0.008092	-0.015327
0.009552	-0.016592
0.011137	-0.017851
0.012876	-0.019121
0.01478	-0.020402
0.016847	-0.021688
0.019078	-0.022979
0.021477	-0.024271
0.024046	-0.025563
0.026785	-0.026853
0.029697	-0.02814
0.03278	-0.029417
0.036039	-0.030684
0.039473	-0.031937
0.043084	-0.033178
0.04686	-0.034403
0.0508	-0.03561
0.054906	-0.036797
0.059178	-0.037964
0.063614	-0.039108
0.068214	-0.04023
0.072977	-0.041327
0.077901	-0.0424
0.082987	-0.043448
0.088232	-0.04447
0.093636	-0.045464
0.099198	-0.046429
0.104916	-0.047364
0.11079	-0.048269
0.116817	-0.049143
0.122996	-0.049987
0.129327	-0.050801
0.135807	-0.051582
0.142435	-0.052327
0.149209	-0.053036
0.156129	-0.05371
0.163191	-0.05435
0.170395	-0.054954
0.177739	-0.055522
0.185221	-0.056052
0.192839	-0.056544
0.200593	-0.056999
0.208479	-0.057418
0.216497	-0.057798
0.224645	-0.05814
0.232922	-0.058444
0.241325	-0.058708
0.249854	-0.058933
0.258507	-0.059121
0.267282	-0.059272
0.276178	-0.059384
0.285195	-0.059457
0.29433	-0.059487
0.303582	-0.059475
0.31295	-0.05943
0.322541	-0.059347
0.332211	-0.059218
0.341964	-0.059054
0.351742	-0.058855
0.361468	-0.05862
0.37114	-0.058358
0.380756	-0.058067
0.390313	-0.057739
0.399812	-0.057392
0.40925	-0.05702
0.418625	-0.05662
0.427936	-0.056199
0.437182	-0.055759
0.446361	-0.055294
0.455472	-0.054821
0.464515	-0.054326
0.473488	-0.053811
0.48239	-0.053282
0.491219	-0.052739
0.499976	-0.052189
0.50866	-0.051625
0.51727	-0.051051
0.525806	-0.050469
0.534266	-0.049874
0.542649	-0.049265
0.550956	-0.048656
0.559187	-0.048042
0.567339	-0.047409
0.575414	-0.046776
0.583411	-0.046145
0.591329	-0.045506
0.599168	-0.044857
0.606928	-0.044208
0.61461	-0.043561
0.622213	-0.042911
0.629735	-0.04225
0.637178	-0.041589
0.644542	-0.040932
0.651826	-0.040273
0.659031	-0.039611
0.666156	-0.03895
0.673202	-0.038287
0.680168	-0.037624
0.687055	-0.036967
0.693869	-0.03631
0.700614	-0.03565
0.70729	-0.034989
0.713898	-0.034332
0.720437	-0.033678
0.726908	-0.03302
0.733309	-0.032359
0.739643	-0.031708
0.745908	-0.031061
0.752104	-0.030409
0.758231	-0.029758
0.764289	-0.029114
0.770279	-0.028471
0.7762	-0.027828
0.782053	-0.027191
0.787839	-0.026559
0.793556	-0.025927
0.799205	-0.025298
0.804787	-0.024676
0.810302	-0.024057
0.815749	-0.023437
0.821128	-0.022818
0.826442	-0.022208
0.831689	-0.021606
0.83687	-0.021004
0.841985	-0.020403
0.847034	-0.019806
0.852018	-0.019217
0.856937	-0.018631
0.861791	-0.018048
0.866581	-0.017471
0.871307	-0.0169
0.875971	-0.016335
0.880571	-0.015771
0.885107	-0.015209
0.889582	-0.014651
0.893994	-0.014101
0.898345	-0.013558
0.902636	-0.013018
0.906865	-0.012482
0.911034	-0.011952
0.915144	-0.01143
0.919196	-0.010913
0.923188	-0.0104
0.927122	-0.009889
0.930998	-0.009381
0.934817	-0.008881
0.938579	-0.008387
0.942285	-0.007901
0.945936	-0.007419
0.949532	-0.006942
0.953073	-0.006469
0.95656	-0.006001
0.959993	-0.005539
0.963373	-0.005082
0.966701	-0.004631
0.969978	-0.004187
0.973203	-0.003747
0.976377	-0.00331
0.9795	-0.002874
0.982573	-0.002444
0.985597	-0.002027
0.988572	-0.001607
0.991501	-0.001204
0.99438	-0.000795
0.997214	-0.0004
2.43675736905003	-0.415639145371783
2.30755308286762	-0.813289049887866
2.09849615633231	-1.17538626832121
1.81872338030013	-1.48610541469105
1.48046216758242	-1.73186657130514
1.09849615633231	-1.90192879632657
0.689519094117724	-1.98885955447281
0.27140524104711	-1.98885955447281
-0.137571821167477	-1.90192879632657
-0.519537832417583	-1.73186657130514
-0.857799045135299	-1.48610541469105
-1.13757182116748	-1.17538626832121
-1.34662874770278	-0.813289049887863
-1.47583303388519	-0.415639145371782
-1.51953783241758	0.000184236263736509
-1.47583303388519	0.416007617899256
-1.34662874770278	0.813657522415337
-1.13757182116748	1.17575474084868
-0.857799045135298	1.48647388721853
-0.519537832417582	1.73223504383261
-0.137571821167477	1.90229726885404
0.271405241047111	1.98922802700028
0.689519094117725	1.98922802700028
1.09849615633231	1.90229726885404
1.48046216758242	1.73223504383261
1.81872338030013	1.48647388721852
2.09849615633231	1.17575474084868
2.30755308286762	0.813657522415337
2.43675736905003	0.416007617899255
2.48046216758242	0.000184236263736264
0.48046216758242	4.00018423626373
-7.51953783241758	-3.99981576373627
8.48046216758242	-3.99981576373627
1	2	2
2	3	3
3	4	4
4	5	5
5	6	6
6	7	7
7	8	8
8	9	9
9	10	10
10	11	11
11	12	12
12	13	13
13	14	14
14	15	15
15	16	16
16	17	17
17	18	18
18	19	19
19	20	20
20	21	21
21	22	22
22	23	23
23	24	24
24	25	25
25	26	26
26	27	27
27	28	28
28	29	29
29	30	30
30	31	31
31	32	32
32	33	33
33	34	34
34	35	35
35	36	36
36	37	37
37	38	38
38	39	39
39	40	40
40	41	41
41	42	42
42	43	43
43	44	44
44	45	45
45	46	46
46	47	47
47	48	48
48	49	49
49	50	50
50	51	51
51	52	52
52	53	53
53	54	54
54	55	55
55	56	56
56	57	57
57	58	58
58	59	59
59	60	60
60	61	61
61	62	62
62	63	63
63	64	64
64	65	65
65	66	66
66	67	67
67	68	68
68	69	69
69	70	70
70	71	71
71	72	72
72	73	73
73	74	74
74	75	75
75	76	76
76	77	77
77	78	78
78	79	79
79	80	80
80	81	81
81	82	82
82	83	83
83	84	84
84	85	85
85	86	86
86	87	87
87	88	88
88	89	89
89	90	90
90	91	91
91	92	92
92	93	93
93	94	94
94	95	95
95	96	96
96	97	97
97	98	98
98	99	99
99	100	100
100	101	101
101	102	102
102	103	103
103	104	104
104	105	105
105	106	106
106	107	107
107	108	108
108	109	109
109	110	110
110	111	111
111	112	112
112	113	113
113	114	114
114	115	115
115	116	116
116	117	117
117	118	118
118	119	119
119	120	120
120	121	121
121	122	122
122	123	123
123	124	124
124	125	125
125	126	126
126	127	127
127	128	128
128	129	129
129	130	130
130	131	131
131	132	132
132	133	133
133	134	134
134	135	135
135	136	136
136	137	137
137	138	138
138	139	139
139	140	140
140	141	141
141	142	142
142	143	143
143	144	144
144	145	145
145	146	146
146	147	147
147	148	148
148	149	149
149	150	150
150	151	151
151	152	152
152	153	153
153	154	154
154	155	155
155	156	156
156	157	157
157	158	158
158	159	159
159	160	160
160	161	161
161	162	162
162	163	163
163	164	164
164	165	165
165	166	166
166	167	167
167	168	168
168	169	169
169	170	170
170	171	171
171	172	172
172	173	173
173	174	174
174	175	175
175	176	176
176	177	177
177	178	178
178	179	179
179	180	180
180	181	181
181	182	182
182	183	183
183	184	184
184	185	185
185	186	186
186	187	187
187	188	188
188	189	189
189	190	190
190	191	191
191	192	192
192	193	193
193	194	194
194	195	195
195	196	196
196	197	197
197	198	198
198	199	199
199	200	200
200	201	201
201	202	202
202	203	203
203	204	204
204	205	205
205	206	206
206	207	207
207	208	208
208	209	209
209	210	210
210	211	211
211	212	212
212	213	213
213	214	214
214	215	215
215	216	216
216	217	217
217	218	218
218	219	219
219	220	220
220	221	221
221	222	222
222	223	223
223	224	224
224	225	225
225	226	226
226	227	227
227	228	228
228	229	229
229	230	230
230	231	231
231	232	232
232	233	233