Variables="X","Y"
Zone N=394 E=364,Datapacking=Point, Zonetype=Fetriangle
1	0
0.997214	0.0004
0.99438	0.000795
0.991501	0.001204
0.988572	0.001609
0.985597	0.002025
0.982573	0.002445
0.9795	0.002875
0.976377	0.00331
0.973203	0.003746
0.969978	0.004186
0.966701	0.004631
0.963373	0.005082
0.959993	0.005539
0.95656	0.006001
0.953073	0.006469
0.949532	0.006942
0.945936	0.007419
0.942285	0.007901
0.938579	0.008388
0.934817	0.008881
0.930998	0.009381
0.927122	0.009889
0.923188	0.0104
0.919196	0.010913
0.915144	0.01143
0.911034	0.011952
0.906865	0.012482
0.902636	0.013018
0.898345	0.013558
0.893994	0.014101
0.889581	0.014651
0.885107	0.015209
0.880571	0.015771
0.875971	0.016335
0.871307	0.0169
0.866581	0.017471
0.861791	0.018048
0.856937	0.018631
0.852017	0.019217
0.847034	0.019806
0.841985	0.020403
0.83687	0.021004
0.831689	0.021606
0.826442	0.022208
0.821128	0.022818
0.815749	0.023437
0.810302	0.024057
0.804787	0.024676
0.799205	0.025298
0.793556	0.025927
0.787839	0.026559
0.782053	0.027191
0.7762	0.027828
0.770279	0.028471
0.764289	0.029114
0.75823	0.029758
0.752104	0.030409
0.745908	0.031061
0.739643	0.031708
0.733309	0.032359
0.726908	0.03302
0.720437	0.033678
0.713898	0.034332
0.70729	0.034989
0.700613	0.03565
0.693869	0.03631
0.687055	0.036967
0.680168	0.037624
0.673202	0.038287
0.666156	0.03895
0.659031	0.039611
0.651826	0.040273
0.644542	0.040932
0.637178	0.041589
0.629735	0.04225
0.622213	0.042911
0.61461	0.043561
0.606928	0.044208
0.599168	0.044857
0.591329	0.045506
0.583411	0.046145
0.575414	0.046776
0.567339	0.047409
0.559187	0.048042
0.550956	0.048656
0.542649	0.049265
0.534266	0.049874
0.525806	0.050469
0.51727	0.051051
0.50866	0.051625
0.499976	0.052189
0.491219	0.052739
0.482389	0.053282
0.473488	0.053811
0.464515	0.054326
0.455472	0.054821
0.44636	0.055294
0.437182	0.055759
0.427936	0.056199
0.418625	0.05662
0.409249	0.05702
0.399812	0.057392
0.390313	0.057739
0.380755	0.058067
0.37114	0.058358
0.361468	0.05862
0.351742	0.058855
0.341964	0.059054
0.332211	0.059218
0.322541	0.059347
0.31295	0.05943
0.304732	0.05947
0.296572	0.059488
0.288463	0.059472
0.280402	0.059423
0.272385	0.059341
0.264407	0.059227
0.256466	0.05908
0.248564	0.058902
0.240701	0.05869
0.232881	0.058443
0.22511	0.058159
0.217394	0.057838
0.209739	0.05748
0.202153	0.057086
0.194643	0.056654
0.187219	0.056186
0.179889	0.055679
0.172659	0.055134
0.165543	0.054552
0.158536	0.053933
0.151643	0.053278
0.144866	0.052587
0.13821	0.051858
0.131679	0.051091
0.125301	0.05029
0.119093	0.04946
0.113015	0.048597
0.107094	0.047706
0.101376	0.046792
0.095773	0.045842
0.090315	0.04486
0.085027	0.043852
0.079886	0.042816
0.074909	0.041755
0.070096	0.040671
0.065448	0.039563
0.060954	0.03843
0.056625	0.037275
0.052465	0.0361
0.048472	0.034905
0.044631	0.033688
0.040955	0.032455
0.037438	0.031204
0.03408	0.029932
0.030882	0.02864
0.027847	0.027332
0.024974	0.02601
0.022262	0.024676
0.019715	0.023331
0.017337	0.02198
0.015114	0.020617
0.013067	0.019255
0.01119	0.017891
0.009482	0.016533
0.007935	0.015184
0.006587	0.013885
0.00539	0.012605
0.004348	0.011357
0.003445	0.010138
0.002682	0.008969
0.002062	0.007887
0.001547	0.006852
0.00113	0.005876
0.000797	0.004948
0.00054	0.004082
0.00035	0.003291
0.000211	0.002558
0.000114	0.001873
4.9e-05	0.001235
1.3e-05	0.000643
0	0.000101
6e-06	-0.00042
3e-05	-0.000969
7.9e-05	-0.001561
0.000157	-0.002204
0.000272	-0.002903
0.000434	-0.003665
0.000653	-0.004486
0.000941	-0.005371
0.001299	-0.00629
0.001745	-0.007267
0.002293	-0.008308
0.002955	-0.009406
0.003726	-0.010534
0.004604	-0.011677
0.005621	-0.012863
0.006779	-0.014078
0.008092	-0.015327
0.009552	-0.016592
0.011137	-0.017851
0.012876	-0.019121
0.01478	-0.020402
0.016847	-0.021688
0.019078	-0.022979
0.021477	-0.024271
0.024046	-0.025563
0.026785	-0.026853
0.029697	-0.02814
0.03278	-0.029417
0.036039	-0.030684
0.039473	-0.031937
0.043084	-0.033178
0.04686	-0.034403
0.0508	-0.03561
0.054906	-0.036797
0.059178	-0.037964
0.063614	-0.039108
0.068214	-0.04023
0.072977	-0.041327
0.077901	-0.0424
0.082987	-0.043448
0.088232	-0.04447
0.093636	-0.045464
0.099198	-0.046429
0.104916	-0.047364
0.11079	-0.048269
0.116817	-0.049143
0.122996	-0.049987
0.129327	-0.050801
0.135807	-0.051582
0.142435	-0.052327
0.149209	-0.053036
0.156129	-0.05371
0.163191	-0.05435
0.170395	-0.054954
0.177739	-0.055522
0.185221	-0.056052
0.192839	-0.056544
0.200593	-0.056999
0.208479	-0.057418
0.216497	-0.057798
0.224645	-0.05814
0.232922	-0.058444
0.241325	-0.058708
0.249854	-0.058933
0.258507	-0.059121
0.267282	-0.059272
0.276178	-0.059384
0.285195	-0.059457
0.29433	-0.059487
0.303582	-0.059475
0.31295	-0.05943
0.322541	-0.059347
0.332211	-0.059218
0.341964	-0.059054
0.351742	-0.058855
0.361468	-0.05862
0.37114	-0.058358
0.380756	-0.058067
0.390313	-0.057739
0.399812	-0.057392
0.40925	-0.05702
0.418625	-0.05662
0.427936	-0.056199
0.437182	-0.055759
0.446361	-0.055294
0.455472	-0.054821
0.464515	-0.054326
0.473488	-0.053811
0.48239	-0.053282
0.491219	-0.052739
0.499976	-0.052189
0.50866	-0.051625
0.51727	-0.051051
0.525806	-0.050469
0.534266	-0.049874
0.542649	-0.049265
0.550956	-0.048656
0.559187	-0.048042
0.567339	-0.047409
0.575414	-0.046776
0.583411	-0.046145
0.591329	-0.045506
0.599168	-0.044857
0.606928	-0.044208
0.61461	-0.043561
0.622213	-0.042911
0.629735	-0.04225
0.637178	-0.041589
0.644542	-0.040932
0.651826	-0.040273
0.659031	-0.039611
0.666156	-0.03895
0.673202	-0.038287
0.680168	-0.037624
0.687055	-0.036967
0.693869	-0.03631
0.700614	-0.03565
0.70729	-0.034989
0.713898	-0.034332
0.720437	-0.033678
0.726908	-0.03302
0.733309	-0.032359
0.739643	-0.031708
0.745908	-0.031061
0.752104	-0.030409
0.758231	-0.029758
0.764289	-0.029114
0.770279	-0.028471
0.7762	-0.027828
0.782053	-0.027191
0.787839	-0.026559
0.793556	-0.025927
0.799205	-0.025298
0.804787	-0.024676
0.810302	-0.024057
0.815749	-0.023437
0.821128	-0.022818
0.826442	-0.022208
0.831689	-0.021606
0.83687	-0.021004
0.841985	-0.020403
0.847034	-0.019806
0.852018	-0.019217
0.856937	-0.018631
0.861791	-0.018048
0.866581	-0.017471
0.871307	-0.0169
0.875971	-0.016335
0.880571	-0.015771
0.885107	-0.015209
0.889582	-0.014651
0.893994	-0.014101
0.898345	-0.013558
0.902636	-0.013018
0.906865	-0.012482
0.911034	-0.011952
0.915144	-0.01143
0.919196	-0.010913
0.923188	-0.0104
0.927122	-0.009889
0.930998	-0.009381
0.934817	-0.008881
0.938579	-0.008387
0.942285	-0.007901
0.945936	-0.007419
0.949532	-0.006942
0.953073	-0.006469
0.95656	-0.006001
0.959993	-0.005539
0.963373	-0.005082
0.966701	-0.004631
0.969978	-0.004187
0.973203	-0.003747
0.976377	-0.00331
0.9795	-0.002874
0.982573	-0.002444
0.985597	-0.002027
0.988572	-0.001607
0.991501	-0.001204
0.99438	-0.000795
0.997214	-0.0004
2.43675736905003	-0.415639145371783
2.30755308286762	-0.813289049887866
2.09849615633231	-1.17538626832121
1.81872338030013	-1.48610541469105
1.48046216758242	-1.73186657130514
1.09849615633231	-1.90192879632657
0.689519094117724	-1.98885955447281
0.27140524104711	-1.98885955447281
-0.137571821167477	-1.90192879632657
-0.519537832417583	-1.73186657130514
-0.857799045135299	-1.48610541469105
-1.13757182116748	-1.17538626832121
-1.34662874770278	-0.813289049887863
-1.47583303388519	-0.415639145371782
-1.51953783241758	0.000184236263736509
-1.47583303388519	0.416007617899256
-1.34662874770278	0.813657522415337
-1.13757182116748	1.17575474084868
-0.857799045135298	1.48647388721853
-0.519537832417582	1.73223504383261
-0.137571821167477	1.90229726885404
0.271405241047111	1.98922802700028
0.689519094117725	1.98922802700028
1.09849615633231	1.90229726885404
1.48046216758242	1.73223504383261
1.81872338030013	1.48647388721852
2.09849615633231	1.17575474084868
2.30755308286762	0.813657522415337
2.43675736905003	0.416007617899255
2.48046216758242	0.000184236263736264
1	2	2
2	3	3
3	4	4
4	5	5
5	6	6
6	7	7
7	8	8
8	9	9
9	10	10
10	11	11
11	12	12
12	13	13
13	14	14
14	15	15
15	16	16
16	17	17
17	18	18
18	19	19
19	20	20
20	21	21
21	22	22
22	23	23
23	24	24
24	25	25
25	26	26
26	27	27
27	28	28
28	29	29
29	30	30
30	31	31
31	32	32
32	33	33
33	34	34
34	35	35
35	36	36
36	37	37
37	38	38
38	39	39
39	40	40
40	41	41
41	42	42
42	43	43
43	44	44
44	45	45
45	46	46
46	47	47
47	48	48
48	49	49
49	50	50
50	51	51
51	52	52
52	53	53
53	54	54
54	55	55
55	56	56
56	57	57
57	58	58
58	59	59
59	60	60
60	61	61
61	62	62
62	63	63
63	64	64
64	65	65
65	66	66
66	67	67
67	68	68
68	69	69
69	70	70
70	71	71
71	72	72
72	73	73
73	74	74
74	75	75
75	76	76
76	77	77
77	78	78
78	79	79
79	80	80
80	81	81
81	82	82
82	83	83
83	84	84
84	85	85
85	86	86
86	87	87
87	88	88
88	89	89
89	90	90
90	91	91
91	92	92
92	93	93
93	94	94
94	95	95
95	96	96
96	97	97
97	98	98
98	99	99
99	100	100
100	101	101
101	102	102
102	103	103
103	104	104
104	105	105
105	106	106
106	107	107
107	108	108
108	109	109
109	110	110
110	111	111
111	112	112
112	113	113
113	114	114
114	115	115
115	116	116
116	117	117
117	118	118
118	119	119
119	120	120
120	121	121
121	122	122
122	123	123
123	124	124
124	125	125
125	126	126
126	127	127
127	128	128
128	129	129
129	130	130
130	131	131
131	132	132
132	133	133
133	134	134
134	135	135
135	136	136
136	137	137
137	138	138
138	139	139
139	140	140
140	141	141
141	142	142
142	143	143
143	144	144
144	145	145
145	146	146
146	147	147
147	148	148
148	149	149
149	150	150
150	151	151
151	152	152
152	153	153
153	154	154
154	155	155
155	156	156
156	157	157
157	158	158
158	159	159
159	160	160
160	161	161
161	162	162
162	163	163
163	164	164
164	165	165
165	166	166
166	167	167
167	168	168
168	169	169
169	170	170
170	171	171
171	172	172
172	173	173
173	174	174
174	175	175
175	176	176
176	177	177
177	178	178
178	179	179
179	180	180
180	181	181
181	182	182
182	183	183
183	184	184
184	185	185
185	186	186
186	187	187
187	188	188
188	189	189
189	190	190
190	191	191
191	192	192
192	193	193
193	194	194
194	195	195
195	196	196
196	197	197
197	198	198
198	199	199
199	200	200
200	201	201
201	202	202
202	203	203
203	204	204
204	205	205
205	206	206
206	207	207
207	208	208
208	209	209
209	210	210
210	211	211
211	212	212
212	213	213
213	214	214
214	215	215
215	216	216
216	217	217
217	218	218
218	219	219
219	220	220
220	221	221
221	222	222
222	223	223
223	224	224
224	225	225
225	226	226
226	227	227
227	228	228
228	229	229
229	230	230
230	231	231
231	232	232
232	233	233
233	234	234
234	235	235
235	236	236
236	237	237
237	238	238
238	239	239
239	240	240
240	241	241
241	242	242
242	243	243
243	244	244
244	245	245
245	246	246
246	247	247
247	248	248
248	249	249
249	250	250
250	251	251
251	252	252
252	253	253
253	254	254
254	255	255
255	256	256
256	257	257
257	258	258
258	259	259
259	260	260
260	261	261
261	262	262
262	263	263
263	264	264
264	265	265
265	266	266
266	267	267
267	268	268
268	269	269
269	270	270
270	271	271
271	272	272
272	273	273
273	274	274
274	275	275
275	276	276
276	277	277
277	278	278
278	279	279
279	280	280
280	281	281
281	282	282
282	283	283
283	284	284
284	285	285
285	286	286
286	287	287
287	288	288
288	289	289
289	290	290
290	291	291
291	292	292
292	293	293
293	294	294
294	295	295
295	296	296
296	297	297
297	298	298
298	299	299
299	300	300
300	301	301
301	302	302
302	303	303
303	304	304
304	305	305
305	306	306
306	307	307
307	308	308
308	309	309
309	310	310
310	311	311
311	312	312
312	313	313
313	314	314
314	315	315
315	316	316
316	317	317
317	318	318
318	319	319
319	320	320
320	321	321
321	322	322
322	323	323
323	324	324
324	325	325
325	326	326
326	327	327
327	328	328
328	329	329
329	330	330
330	331	331
331	332	332
332	333	333
333	334	334
334	335	335
335	336	336
336	337	337
337	338	338
338	339	339
339	340	340
340	341	341
341	342	342
342	343	343
343	344	344
344	345	345
345	346	346
346	347	347
347	348	348
348	349	349
349	350	350
350	351	351
351	352	352
352	353	353
353	354	354
354	355	355
355	356	356
356	357	357
357	358	358
358	359	359
359	360	360
360	361	361
361	362	362
362	363	363
363	364	364
364	1	1
Variables="X","Y"
Zone N=394 E=30,Datapacking=Point, Zonetype=Fetriangle
1	0
0.997214	0.0004
0.99438	0.000795
0.991501	0.001204
0.988572	0.001609
0.985597	0.002025
0.982573	0.002445
0.9795	0.002875
0.976377	0.00331
0.973203	0.003746
0.969978	0.004186
0.966701	0.004631
0.963373	0.005082
0.959993	0.005539
0.95656	0.006001
0.953073	0.006469
0.949532	0.006942
0.945936	0.007419
0.942285	0.007901
0.938579	0.008388
0.934817	0.008881
0.930998	0.009381
0.927122	0.009889
0.923188	0.0104
0.919196	0.010913
0.915144	0.01143
0.911034	0.011952
0.906865	0.012482
0.902636	0.013018
0.898345	0.013558
0.893994	0.014101
0.889581	0.014651
0.885107	0.015209
0.880571	0.015771
0.875971	0.016335
0.871307	0.0169
0.866581	0.017471
0.861791	0.018048
0.856937	0.018631
0.852017	0.019217
0.847034	0.019806
0.841985	0.020403
0.83687	0.021004
0.831689	0.021606
0.826442	0.022208
0.821128	0.022818
0.815749	0.023437
0.810302	0.024057
0.804787	0.024676
0.799205	0.025298
0.793556	0.025927
0.787839	0.026559
0.782053	0.027191
0.7762	0.027828
0.770279	0.028471
0.764289	0.029114
0.75823	0.029758
0.752104	0.030409
0.745908	0.031061
0.739643	0.031708
0.733309	0.032359
0.726908	0.03302
0.720437	0.033678
0.713898	0.034332
0.70729	0.034989
0.700613	0.03565
0.693869	0.03631
0.687055	0.036967
0.680168	0.037624
0.673202	0.038287
0.666156	0.03895
0.659031	0.039611
0.651826	0.040273
0.644542	0.040932
0.637178	0.041589
0.629735	0.04225
0.622213	0.042911
0.61461	0.043561
0.606928	0.044208
0.599168	0.044857
0.591329	0.045506
0.583411	0.046145
0.575414	0.046776
0.567339	0.047409
0.559187	0.048042
0.550956	0.048656
0.542649	0.049265
0.534266	0.049874
0.525806	0.050469
0.51727	0.051051
0.50866	0.051625
0.499976	0.052189
0.491219	0.052739
0.482389	0.053282
0.473488	0.053811
0.464515	0.054326
0.455472	0.054821
0.44636	0.055294
0.437182	0.055759
0.427936	0.056199
0.418625	0.05662
0.409249	0.05702
0.399812	0.057392
0.390313	0.057739
0.380755	0.058067
0.37114	0.058358
0.361468	0.05862
0.351742	0.058855
0.341964	0.059054
0.332211	0.059218
0.322541	0.059347
0.31295	0.05943
0.304732	0.05947
0.296572	0.059488
0.288463	0.059472
0.280402	0.059423
0.272385	0.059341
0.264407	0.059227
0.256466	0.05908
0.248564	0.058902
0.240701	0.05869
0.232881	0.058443
0.22511	0.058159
0.217394	0.057838
0.209739	0.05748
0.202153	0.057086
0.194643	0.056654
0.187219	0.056186
0.179889	0.055679
0.172659	0.055134
0.165543	0.054552
0.158536	0.053933
0.151643	0.053278
0.144866	0.052587
0.13821	0.051858
0.131679	0.051091
0.125301	0.05029
0.119093	0.04946
0.113015	0.048597
0.107094	0.047706
0.101376	0.046792
0.095773	0.045842
0.090315	0.04486
0.085027	0.043852
0.079886	0.042816
0.074909	0.041755
0.070096	0.040671
0.065448	0.039563
0.060954	0.03843
0.056625	0.037275
0.052465	0.0361
0.048472	0.034905
0.044631	0.033688
0.040955	0.032455
0.037438	0.031204
0.03408	0.029932
0.030882	0.02864
0.027847	0.027332
0.024974	0.02601
0.022262	0.024676
0.019715	0.023331
0.017337	0.02198
0.015114	0.020617
0.013067	0.019255
0.01119	0.017891
0.009482	0.016533
0.007935	0.015184
0.006587	0.013885
0.00539	0.012605
0.004348	0.011357
0.003445	0.010138
0.002682	0.008969
0.002062	0.007887
0.001547	0.006852
0.00113	0.005876
0.000797	0.004948
0.00054	0.004082
0.00035	0.003291
0.000211	0.002558
0.000114	0.001873
4.9e-05	0.001235
1.3e-05	0.000643
0	0.000101
6e-06	-0.00042
3e-05	-0.000969
7.9e-05	-0.001561
0.000157	-0.002204
0.000272	-0.002903
0.000434	-0.003665
0.000653	-0.004486
0.000941	-0.005371
0.001299	-0.00629
0.001745	-0.007267
0.002293	-0.008308
0.002955	-0.009406
0.003726	-0.010534
0.004604	-0.011677
0.005621	-0.012863
0.006779	-0.014078
0.008092	-0.015327
0.009552	-0.016592
0.011137	-0.017851
0.012876	-0.019121
0.01478	-0.020402
0.016847	-0.021688
0.019078	-0.022979
0.021477	-0.024271
0.024046	-0.025563
0.026785	-0.026853
0.029697	-0.02814
0.03278	-0.029417
0.036039	-0.030684
0.039473	-0.031937
0.043084	-0.033178
0.04686	-0.034403
0.0508	-0.03561
0.054906	-0.036797
0.059178	-0.037964
0.063614	-0.039108
0.068214	-0.04023
0.072977	-0.041327
0.077901	-0.0424
0.082987	-0.043448
0.088232	-0.04447
0.093636	-0.045464
0.099198	-0.046429
0.104916	-0.047364
0.11079	-0.048269
0.116817	-0.049143
0.122996	-0.049987
0.129327	-0.050801
0.135807	-0.051582
0.142435	-0.052327
0.149209	-0.053036
0.156129	-0.05371
0.163191	-0.05435
0.170395	-0.054954
0.177739	-0.055522
0.185221	-0.056052
0.192839	-0.056544
0.200593	-0.056999
0.208479	-0.057418
0.216497	-0.057798
0.224645	-0.05814
0.232922	-0.058444
0.241325	-0.058708
0.249854	-0.058933
0.258507	-0.059121
0.267282	-0.059272
0.276178	-0.059384
0.285195	-0.059457
0.29433	-0.059487
0.303582	-0.059475
0.31295	-0.05943
0.322541	-0.059347
0.332211	-0.059218
0.341964	-0.059054
0.351742	-0.058855
0.361468	-0.05862
0.37114	-0.058358
0.380756	-0.058067
0.390313	-0.057739
0.399812	-0.057392
0.40925	-0.05702
0.418625	-0.05662
0.427936	-0.056199
0.437182	-0.055759
0.446361	-0.055294
0.455472	-0.054821
0.464515	-0.054326
0.473488	-0.053811
0.48239	-0.053282
0.491219	-0.052739
0.499976	-0.052189
0.50866	-0.051625
0.51727	-0.051051
0.525806	-0.050469
0.534266	-0.049874
0.542649	-0.049265
0.550956	-0.048656
0.559187	-0.048042
0.567339	-0.047409
0.575414	-0.046776
0.583411	-0.046145
0.591329	-0.045506
0.599168	-0.044857
0.606928	-0.044208
0.61461	-0.043561
0.622213	-0.042911
0.629735	-0.04225
0.637178	-0.041589
0.644542	-0.040932
0.651826	-0.040273
0.659031	-0.039611
0.666156	-0.03895
0.673202	-0.038287
0.680168	-0.037624
0.687055	-0.036967
0.693869	-0.03631
0.700614	-0.03565
0.70729	-0.034989
0.713898	-0.034332
0.720437	-0.033678
0.726908	-0.03302
0.733309	-0.032359
0.739643	-0.031708
0.745908	-0.031061
0.752104	-0.030409
0.758231	-0.029758
0.764289	-0.029114
0.770279	-0.028471
0.7762	-0.027828
0.782053	-0.027191
0.787839	-0.026559
0.793556	-0.025927
0.799205	-0.025298
0.804787	-0.024676
0.810302	-0.024057
0.815749	-0.023437
0.821128	-0.022818
0.826442	-0.022208
0.831689	-0.021606
0.83687	-0.021004
0.841985	-0.020403
0.847034	-0.019806
0.852018	-0.019217
0.856937	-0.018631
0.861791	-0.018048
0.866581	-0.017471
0.871307	-0.0169
0.875971	-0.016335
0.880571	-0.015771
0.885107	-0.015209
0.889582	-0.014651
0.893994	-0.014101
0.898345	-0.013558
0.902636	-0.013018
0.906865	-0.012482
0.911034	-0.011952
0.915144	-0.01143
0.919196	-0.010913
0.923188	-0.0104
0.927122	-0.009889
0.930998	-0.009381
0.934817	-0.008881
0.938579	-0.008387
0.942285	-0.007901
0.945936	-0.007419
0.949532	-0.006942
0.953073	-0.006469
0.95656	-0.006001
0.959993	-0.005539
0.963373	-0.005082
0.966701	-0.004631
0.969978	-0.004187
0.973203	-0.003747
0.976377	-0.00331
0.9795	-0.002874
0.982573	-0.002444
0.985597	-0.002027
0.988572	-0.001607
0.991501	-0.001204
0.99438	-0.000795
0.997214	-0.0004
2.43675736905003	-0.415639145371783
2.30755308286762	-0.813289049887866
2.09849615633231	-1.17538626832121
1.81872338030013	-1.48610541469105
1.48046216758242	-1.73186657130514
1.09849615633231	-1.90192879632657
0.689519094117724	-1.98885955447281
0.27140524104711	-1.98885955447281
-0.137571821167477	-1.90192879632657
-0.519537832417583	-1.73186657130514
-0.857799045135299	-1.48610541469105
-1.13757182116748	-1.17538626832121
-1.34662874770278	-0.813289049887863
-1.47583303388519	-0.415639145371782
-1.51953783241758	0.000184236263736509
-1.47583303388519	0.416007617899256
-1.34662874770278	0.813657522415337
-1.13757182116748	1.17575474084868
-0.857799045135298	1.48647388721853
-0.519537832417582	1.73223504383261
-0.137571821167477	1.90229726885404
0.271405241047111	1.98922802700028
0.689519094117725	1.98922802700028
1.09849615633231	1.90229726885404
1.48046216758242	1.73223504383261
1.81872338030013	1.48647388721852
2.09849615633231	1.17575474084868
2.30755308286762	0.813657522415337
2.43675736905003	0.416007617899255
2.48046216758242	0.000184236263736264
365	366	366
366	367	367
367	368	368
368	369	369
369	370	370
370	371	371
371	372	372
372	373	373
373	374	374
374	375	375
375	376	376
376	377	377
377	378	378
378	379	379
379	380	380
380	381	381
381	382	382
382	383	383
383	384	384
384	385	385
385	386	386
386	387	387
387	388	388
388	389	389
389	390	390
390	391	391
391	392	392
392	393	393
393	394	394
394	365	365
